
 stresses (elem, integ.pnt.,sxx,syy,szz,sxy,sxz,syz)

       1       1   1.0000E+02   5.0000E+01   3.0000E+01   1.0000E+01   5.0000E+00   3.0000E+00
       1       2   1.2000E+02   6.0000E+01   4.0000E+01   1.2000E+01   6.0000E+00   4.0000E+00
       2       1   8.0000E+01   4.0000E+01   2.0000E+01   8.0000E+00   4.0000E+00   2.0000E+00
       2       2   1.5000E+02   7.5000E+01   5.0000E+01   1.5000E+01   7.5000E+00   5.0000E+00

 strains (elem, integ.pnt.,exx,eyy,ezz,exy,exz,eyz)

       1       1   1.0000E-03   5.0000E-04   3.0000E-04   1.0000E-04   5.0000E-05   3.0000E-05
       1       2   1.2000E-03   6.0000E-04   4.0000E-04   1.2000E-04   6.0000E-05   4.0000E-05
       2       1   8.0000E-04   4.0000E-04   2.0000E-04   8.0000E-05   4.0000E-05   2.0000E-05
       2       2   1.5000E-03   7.5000E-04   5.0000E-04   1.5000E-04   7.5000E-05   5.0000E-05

 equivalent plastic strain

       1       1   0.0000E+00
       1       2   1.0000E-04
       2       1   0.0000E+00
       2       2   2.0000E-04
