    1C
    1UModel: beam     Date: 10-Mar-1998                                 
    1UUSER                                                              
    1UDATE              19.october.2025                                 
    1UTIME              18:37:56                                        
    1UHOST                                                              
    1UPGM               CalculiX                                        
    1UVERSION           Version 2.23                             
    1UCOMPILETIME       Fri Oct 17 18:38:41 CEST 2025                    
    1UDIR                                                               
    1UDBN                                                               
    1UMAT    1EL                                                        
    2C                             8                                     1
 -1         2 1.00000E+00 0.00000E+00 0.00000E+00
 -1        10 5.00000E-01 0.00000E+00 0.00000E+00
 -1        13 1.00000E+00 5.00000E-01 0.00000E+00
 -1        34 1.00000E+00 0.00000E+00 1.00000E+00
 -1        95 5.00000E-01 5.00000E-01 0.00000E+00
 -1       105 5.00000E-01 0.00000E+00 1.00000E+00
 -1       134 1.00000E+00 5.00000E-01 1.00000E+00
 -1       222 5.00000E-01 5.00000E-01 1.00000E+00
 -3
    3C                             1                                     1
 -1         1    1    0    1
 -2        10         2        13        95       105        34       134       222
 -3
    1PSTEP                         1           1           1          
  100CL  101 1.00000E-05           8                     0    1           1
 -4  DISP        4    1
 -5  D1          1    2    1    0
 -5  D2          1    2    2    0
 -5  D3          1    2    3    0
 -5  ALL         1    2    0    0    1ALL
 -1         2 0.00000E+00 0.00000E+00 0.00000E+00
 -1        10 1.23482E-02 0.00000E+00 0.00000E+00
 -1        13 2.39633E-19-1.23482E-02 0.00000E+00
 -1        34 5.39737E-18-1.23513E-17 5.12975E-02
 -1        95 1.23482E-02-1.23482E-02 0.00000E+00
 -1       105 1.23482E-02-1.16719E-17 5.12975E-02
 -1       134 4.69241E-18-1.23482E-02 5.12975E-02
 -1       222 1.23482E-02-1.23482E-02 5.12975E-02
 -3
    1PSTEP                         2           1           1          
  100CL  101 1.00000E-05           8                     0    1           1
 -4  STRESS      6    1
 -5  SXX         1    4    1    1
 -5  SYY         1    4    2    2
 -5  SZZ         1    4    3    3
 -5  SXY         1    4    1    2
 -5  SYZ         1    4    2    3
 -5  SZX         1    4    3    1
 -1         2-3.56534E-04-3.56534E-04 9.99995E+00 1.15590E-13-3.84522E-13 1.64795E-13
 -1        10-3.56534E-04-3.56534E-04 9.99995E+00 1.15590E-13-3.84522E-13 1.64795E-13
 -1        13-3.56534E-04-3.56534E-04 9.99995E+00 1.15590E-13-3.84522E-13 1.64795E-13
 -1        34-3.56534E-04-3.56534E-04 9.99995E+00 1.15590E-13-3.84522E-13 1.64795E-13
 -1        95-3.56534E-04-3.56534E-04 9.99995E+00 1.15590E-13-3.84522E-13 1.64795E-13
 -1       105-3.56534E-04-3.56534E-04 9.99995E+00 1.15590E-13-3.84522E-13 1.64795E-13
 -1       134-3.56534E-04-3.56534E-04 9.99995E+00 1.15590E-13-3.84522E-13 1.64795E-13
 -1       222-3.56534E-04-3.56534E-04 9.99995E+00 1.15590E-13-3.84522E-13 1.64795E-13
 -3
    1PSTEP                         3           1           1          
  100CL  101 1.00000E-05           8                     0    1           1
 -4  PE          1    1
 -5  PE          1    1    0    0
 -1         2 5.00016E-02
 -1        10 5.00016E-02
 -1        13 5.00016E-02
 -1        34 5.00016E-02
 -1        95 5.00016E-02
 -1       105 5.00016E-02
 -1       134 5.00016E-02
 -1       222 5.00016E-02
 -3
    1PSTEP                         4           2           1          
  100CL  102 2.00000E-05           8                     0    2           1
 -4  DISP        4    1
 -5  D1          1    2    1    0
 -5  D2          1    2    2    0
 -5  D3          1    2    3    0
 -5  ALL         1    2    0    0    1ALL
 -1         2 0.00000E+00 0.00000E+00 0.00000E+00
 -1        10 2.43873E-02 0.00000E+00 0.00000E+00
 -1        13 8.72229E-19-2.43873E-02 0.00000E+00
 -1        34 6.01681E-18-1.86505E-17 1.05207E-01
 -1        95 2.43873E-02-2.43873E-02 0.00000E+00
 -1       105 2.43873E-02-1.86912E-17 1.05207E-01
 -1       134 7.57557E-18-2.43873E-02 1.05207E-01
 -1       222 2.43873E-02-2.43873E-02 1.05207E-01
 -3
    1PSTEP                         5           2           1          
  100CL  102 2.00000E-05           8                     0    2           1
 -4  STRESS      6    1
 -5  SXX         1    4    1    1
 -5  SYY         1    4    2    2
 -5  SZZ         1    4    3    3
 -5  SXY         1    4    1    2
 -5  SYZ         1    4    2    3
 -5  SZX         1    4    3    1
 -1         2-2.85425E-03-2.85425E-03 1.99943E+01 7.24838E-13-3.94948E-13 8.72809E-14
 -1        10-2.85425E-03-2.85425E-03 1.99943E+01 7.24838E-13-3.94948E-13 8.72809E-14
 -1        13-2.85425E-03-2.85425E-03 1.99943E+01 7.24838E-13-3.94948E-13 8.72809E-14
 -1        34-2.85425E-03-2.85425E-03 1.99943E+01 7.24838E-13-3.94948E-13 8.72809E-14
 -1        95-2.85425E-03-2.85425E-03 1.99943E+01 7.24838E-13-3.94948E-13 8.72809E-14
 -1       105-2.85425E-03-2.85425E-03 1.99943E+01 7.24838E-13-3.94948E-13 8.72809E-14
 -1       134-2.85425E-03-2.85425E-03 1.99943E+01 7.24838E-13-3.94948E-13 8.72809E-14
 -1       222-2.85425E-03-2.85425E-03 1.99943E+01 7.24838E-13-3.94948E-13 8.72809E-14
 -3
    1PSTEP                         6           2           1          
  100CL  102 2.00000E-05           8                     0    2           1
 -4  PE          1    1
 -5  PE          1    1    0    0
 -1         2 9.99858E-02
 -1        10 9.99858E-02
 -1        13 9.99858E-02
 -1        34 9.99858E-02
 -1        95 9.99858E-02
 -1       105 9.99858E-02
 -1       134 9.99858E-02
 -1       222 9.99858E-02
 -3
    1PSTEP                         7           3           1          
  100CL  103 3.00000E-05           8                     0    3           1
 -4  DISP        4    1
 -5  D1          1    2    1    0
 -5  D2          1    2    2    0
 -5  D3          1    2    3    0
 -5  ALL         1    2    0    0    1ALL
 -1         2 0.00000E+00 0.00000E+00 0.00000E+00
 -1        10 3.61278E-02 0.00000E+00 0.00000E+00
 -1        13-2.04213E-18-3.61278E-02 0.00000E+00
 -1        34 1.35406E-17-1.96294E-17 1.61875E-01
 -1        95 3.61278E-02-3.61278E-02 0.00000E+00
 -1       105 3.61278E-02-2.10382E-17 1.61875E-01
 -1       134 4.26860E-18-3.61278E-02 1.61875E-01
 -1       222 3.61278E-02-3.61278E-02 1.61875E-01
 -3
    1PSTEP                         8           3           1          
  100CL  103 3.00000E-05           8                     0    3           1
 -4  STRESS      6    1
 -5  SXX         1    4    1    1
 -5  SYY         1    4    2    2
 -5  SZZ         1    4    3    3
 -5  SXY         1    4    1    2
 -5  SYZ         1    4    2    3
 -5  SZX         1    4    3    1
 -1         2-8.31287E-03-8.31287E-03 2.99845E+01 7.59305E-14-1.91836E-14 1.10975E-13
 -1        10-8.31287E-03-8.31287E-03 2.99845E+01 7.59305E-14-1.91836E-14 1.10975E-13
 -1        13-8.31287E-03-8.31287E-03 2.99845E+01 7.59305E-14-1.91836E-14 1.10975E-13
 -1        34-8.31287E-03-8.31287E-03 2.99845E+01 7.59305E-14-1.91836E-14 1.10975E-13
 -1        95-8.31287E-03-8.31287E-03 2.99845E+01 7.59305E-14-1.91836E-14 1.10975E-13
 -1       105-8.31287E-03-8.31287E-03 2.99845E+01 7.59305E-14-1.91836E-14 1.10975E-13
 -1       134-8.31287E-03-8.31287E-03 2.99845E+01 7.59305E-14-1.91836E-14 1.10975E-13
 -1       222-8.31287E-03-8.31287E-03 2.99845E+01 7.59305E-14-1.91836E-14 1.10975E-13
 -3
    1PSTEP                         9           3           1          
  100CL  103 3.00000E-05           8                     0    3           1
 -4  PE          1    1
 -5  PE          1    1    0    0
 -1         2 1.49964E-01
 -1        10 1.49964E-01
 -1        13 1.49964E-01
 -1        34 1.49964E-01
 -1        95 1.49964E-01
 -1       105 1.49964E-01
 -1       134 1.49964E-01
 -1       222 1.49964E-01
 -3
    1PSTEP                        10           4           1          
  100CL  104 4.50000E-05           8                     0    4           1
 -4  DISP        4    1
 -5  D1          1    2    1    0
 -5  D2          1    2    2    0
 -5  D3          1    2    3    0
 -5  ALL         1    2    0    0    1ALL
 -1         2 0.00000E+00 0.00000E+00 0.00000E+00
 -1        10 5.32088E-02 0.00000E+00 0.00000E+00
 -1        13 1.09788E-18-5.32088E-02 0.00000E+00
 -1        34 1.10711E-17-1.90416E-17 2.52434E-01
 -1        95 5.32088E-02-5.32088E-02 0.00000E+00
 -1       105 5.32088E-02-1.92324E-17 2.52434E-01
 -1       134 1.02544E-17-5.32088E-02 2.52434E-01
 -1       222 5.32088E-02-5.32088E-02 2.52434E-01
 -3
    1PSTEP                        11           4           1          
  100CL  104 4.50000E-05           8                     0    4           1
 -4  STRESS      6    1
 -5  SXX         1    4    1    1
 -5  SYY         1    4    2    2
 -5  SZZ         1    4    3    3
 -5  SXY         1    4    1    2
 -5  SYZ         1    4    2    3
 -5  SZX         1    4    3    1
 -1         2 5.23516E-04 5.23516E-04 4.49971E+01 1.87352E-12 4.32054E-14 5.06354E-14
 -1        10 5.23516E-04 5.23516E-04 4.49971E+01 1.87352E-12 4.32054E-14 5.06354E-14
 -1        13 5.23516E-04 5.23516E-04 4.49971E+01 1.87352E-12 4.32054E-14 5.06354E-14
 -1        34 5.23516E-04 5.23516E-04 4.49971E+01 1.87352E-12 4.32054E-14 5.06354E-14
 -1        95 5.23516E-04 5.23516E-04 4.49971E+01 1.87352E-12 4.32054E-14 5.06354E-14
 -1       105 5.23516E-04 5.23516E-04 4.49971E+01 1.87352E-12 4.32054E-14 5.06354E-14
 -1       134 5.23516E-04 5.23516E-04 4.49971E+01 1.87352E-12 4.32054E-14 5.06354E-14
 -1       222 5.23516E-04 5.23516E-04 4.49971E+01 1.87352E-12 4.32054E-14 5.06354E-14
 -3
    1PSTEP                        12           4           1          
  100CL  104 4.50000E-05           8                     0    4           1
 -4  PE          1    1
 -5  PE          1    1    0    0
 -1         2 2.24983E-01
 -1        10 2.24983E-01
 -1        13 2.24983E-01
 -1        34 2.24983E-01
 -1        95 2.24983E-01
 -1       105 2.24983E-01
 -1       134 2.24983E-01
 -1       222 2.24983E-01
 -3
    1PSTEP                        13           5           1          
  100CL  105 6.00000E-05           8                     0    5           1
 -4  DISP        4    1
 -5  D1          1    2    1    0
 -5  D2          1    2    2    0
 -5  D3          1    2    3    0
 -5  ALL         1    2    0    0    1ALL
 -1         2 0.00000E+00 0.00000E+00 0.00000E+00
 -1        10 6.96400E-02 0.00000E+00 0.00000E+00
 -1        13-5.87752E-18-6.96400E-02 0.00000E+00
 -1        34 2.86871E-17-1.98973E-17 3.49921E-01
 -1        95 6.96400E-02-6.96400E-02 0.00000E+00
 -1       105 6.96400E-02-1.32906E-17 3.49921E-01
 -1       134 3.65791E-17-6.96400E-02 3.49921E-01
 -1       222 6.96400E-02-6.96400E-02 3.49921E-01
 -3
    1PSTEP                        14           5           1          
  100CL  105 6.00000E-05           8                     0    5           1
 -4  STRESS      6    1
 -5  SXX         1    4    1    1
 -5  SYY         1    4    2    2
 -5  SZZ         1    4    3    3
 -5  SXY         1    4    1    2
 -5  SYZ         1    4    2    3
 -5  SZX         1    4    3    1
 -1         2-1.11678E-02-1.11678E-02 5.99697E+01 2.58359E-12 2.24029E-13 4.43848E-13
 -1        10-1.11678E-02-1.11678E-02 5.99697E+01 2.58359E-12 2.24029E-13 4.43848E-13
 -1        13-1.11678E-02-1.11678E-02 5.99697E+01 2.58359E-12 2.24029E-13 4.43848E-13
 -1        34-1.11678E-02-1.11678E-02 5.99697E+01 2.58359E-12 2.24029E-13 4.43848E-13
 -1        95-1.11678E-02-1.11678E-02 5.99697E+01 2.58359E-12 2.24029E-13 4.43848E-13
 -1       105-1.11678E-02-1.11678E-02 5.99697E+01 2.58359E-12 2.24029E-13 4.43848E-13
 -1       134-1.11678E-02-1.11678E-02 5.99697E+01 2.58359E-12 2.24029E-13 4.43848E-13
 -1       222-1.11678E-02-1.11678E-02 5.99697E+01 2.58359E-12 2.24029E-13 4.43848E-13
 -3
    1PSTEP                        15           5           1          
  100CL  105 6.00000E-05           8                     0    5           1
 -4  PE          1    1
 -5  PE          1    1    0    0
 -1         2 2.99905E-01
 -1        10 2.99905E-01
 -1        13 2.99905E-01
 -1        34 2.99905E-01
 -1        95 2.99905E-01
 -1       105 2.99905E-01
 -1       134 2.99905E-01
 -1       222 2.99905E-01
 -3
    1PSTEP                        16           6           1          
  100CL  106 7.50000E-05           8                     0    6           1
 -4  DISP        4    1
 -5  D1          1    2    1    0
 -5  D2          1    2    2    0
 -5  D3          1    2    3    0
 -5  ALL         1    2    0    0    1ALL
 -1         2 0.00000E+00 0.00000E+00 0.00000E+00
 -1        10 8.54769E-02 0.00000E+00 0.00000E+00
 -1        13 2.57994E-17-8.54769E-02 0.00000E+00
 -1        34 3.49104E-17-1.00897E-17 4.55065E-01
 -1        95 8.54769E-02-8.54769E-02 0.00000E+00
 -1       105 8.54769E-02-1.42078E-17 4.55065E-01
 -1       134 6.46521E-17-8.54769E-02 4.55065E-01
 -1       222 8.54769E-02-8.54769E-02 4.55065E-01
 -3
    1PSTEP                        17           6           1          
  100CL  106 7.50000E-05           8                     0    6           1
 -4  STRESS      6    1
 -5  SXX         1    4    1    1
 -5  SYY         1    4    2    2
 -5  SZZ         1    4    3    3
 -5  SXY         1    4    1    2
 -5  SYZ         1    4    2    3
 -5  SZX         1    4    3    1
 -1         2-1.03746E-02-1.03746E-02 7.49645E+01-3.26205E-12 2.40467E-13 2.79077E-13
 -1        10-1.03746E-02-1.03746E-02 7.49645E+01-3.26205E-12 2.40467E-13 2.79077E-13
 -1        13-1.03746E-02-1.03746E-02 7.49645E+01-3.26205E-12 2.40467E-13 2.79077E-13
 -1        34-1.03746E-02-1.03746E-02 7.49645E+01-3.26205E-12 2.40467E-13 2.79077E-13
 -1        95-1.03746E-02-1.03746E-02 7.49645E+01-3.26205E-12 2.40467E-13 2.79077E-13
 -1       105-1.03746E-02-1.03746E-02 7.49645E+01-3.26205E-12 2.40467E-13 2.79077E-13
 -1       134-1.03746E-02-1.03746E-02 7.49645E+01-3.26205E-12 2.40467E-13 2.79077E-13
 -1       222-1.03746E-02-1.03746E-02 7.49645E+01-3.26205E-12 2.40467E-13 2.79077E-13
 -3
    1PSTEP                        18           6           1          
  100CL  106 7.50000E-05           8                     0    6           1
 -4  PE          1    1
 -5  PE          1    1    0    0
 -1         2 3.74874E-01
 -1        10 3.74874E-01
 -1        13 3.74874E-01
 -1        34 3.74874E-01
 -1        95 3.74874E-01
 -1       105 3.74874E-01
 -1       134 3.74874E-01
 -1       222 3.74874E-01
 -3
    1PSTEP                        19           7           1          
  100CL  107 8.25000E-05           8                     0    7           1
 -4  DISP        4    1
 -5  D1          1    2    1    0
 -5  D2          1    2    2    0
 -5  D3          1    2    3    0
 -5  ALL         1    2    0    0    1ALL
 -1         2 0.00000E+00 0.00000E+00 0.00000E+00
 -1        10 9.31799E-02 0.00000E+00 0.00000E+00
 -1        13 5.76475E-17-9.31799E-02 0.00000E+00
 -1        34 4.24377E-17-1.09849E-17 5.10703E-01
 -1        95 9.31799E-02-9.31799E-02 0.00000E+00
 -1       105 9.31799E-02-1.69762E-17 5.10703E-01
 -1       134 9.87768E-17-9.31799E-02 5.10703E-01
 -1       222 9.31799E-02-9.31799E-02 5.10703E-01
 -3
    1PSTEP                        20           7           1          
  100CL  107 8.25000E-05           8                     0    7           1
 -4  STRESS      6    1
 -5  SXX         1    4    1    1
 -5  SYY         1    4    2    2
 -5  SZZ         1    4    3    3
 -5  SXY         1    4    1    2
 -5  SYZ         1    4    2    3
 -5  SZX         1    4    3    1
 -1         2-5.06922E-03-5.06922E-03 8.24711E+01 1.15143E-11-7.42997E-14 3.24112E-14
 -1        10-5.06922E-03-5.06922E-03 8.24711E+01 1.15143E-11-7.42997E-14 3.24112E-14
 -1        13-5.06922E-03-5.06922E-03 8.24711E+01 1.15143E-11-7.42997E-14 3.24112E-14
 -1        34-5.06922E-03-5.06922E-03 8.24711E+01 1.15143E-11-7.42997E-14 3.24112E-14
 -1        95-5.06922E-03-5.06922E-03 8.24711E+01 1.15143E-11-7.42997E-14 3.24112E-14
 -1       105-5.06922E-03-5.06922E-03 8.24711E+01 1.15143E-11-7.42997E-14 3.24112E-14
 -1       134-5.06922E-03-5.06922E-03 8.24711E+01 1.15143E-11-7.42997E-14 3.24112E-14
 -1       222-5.06922E-03-5.06922E-03 8.24711E+01 1.15143E-11-7.42997E-14 3.24112E-14
 -3
    1PSTEP                        21           7           1          
  100CL  107 8.25000E-05           8                     0    7           1
 -4  PE          1    1
 -5  PE          1    1    0    0
 -1         2 4.12381E-01
 -1        10 4.12381E-01
 -1        13 4.12381E-01
 -1        34 4.12381E-01
 -1        95 4.12381E-01
 -1       105 4.12381E-01
 -1       134 4.12381E-01
 -1       222 4.12381E-01
 -3
    1PSTEP                        22           8           1          
  100CL  108 9.00000E-05           8                     0    8           1
 -4  DISP        4    1
 -5  D1          1    2    1    0
 -5  D2          1    2    2    0
 -5  D3          1    2    3    0
 -5  ALL         1    2    0    0    1ALL
 -1         2 0.00000E+00 0.00000E+00 0.00000E+00
 -1        10 1.00723E-01 0.00000E+00 0.00000E+00
 -1        13 1.40030E-16-1.00723E-01 0.00000E+00
 -1        34 4.29558E-17-1.45146E-17 5.68340E-01
 -1        95 1.00723E-01-1.00723E-01 0.00000E+00
 -1       105 1.00723E-01-7.58502E-18 5.68340E-01
 -1       134 1.89402E-16-1.00723E-01 5.68340E-01
 -1       222 1.00723E-01-1.00723E-01 5.68340E-01
 -3
    1PSTEP                        23           8           1          
  100CL  108 9.00000E-05           8                     0    8           1
 -4  STRESS      6    1
 -5  SXX         1    4    1    1
 -5  SYY         1    4    2    2
 -5  SZZ         1    4    3    3
 -5  SXY         1    4    1    2
 -5  SYZ         1    4    2    3
 -5  SZX         1    4    3    1
 -1         2-1.84284E-02-1.84284E-02 8.99428E+01 1.67231E-12-6.27651E-15 3.72778E-14
 -1        10-1.84284E-02-1.84284E-02 8.99428E+01 1.67231E-12-6.27651E-15 3.72778E-14
 -1        13-1.84284E-02-1.84284E-02 8.99428E+01 1.67231E-12-6.27651E-15 3.72778E-14
 -1        34-1.84284E-02-1.84284E-02 8.99428E+01 1.67231E-12-6.27651E-15 3.72778E-14
 -1        95-1.84284E-02-1.84284E-02 8.99428E+01 1.67231E-12-6.27651E-15 3.72778E-14
 -1       105-1.84284E-02-1.84284E-02 8.99428E+01 1.67231E-12-6.27651E-15 3.72778E-14
 -1       134-1.84284E-02-1.84284E-02 8.99428E+01 1.67231E-12-6.27651E-15 3.72778E-14
 -1       222-1.84284E-02-1.84284E-02 8.99428E+01 1.67231E-12-6.27651E-15 3.72778E-14
 -3
    1PSTEP                        24           8           1          
  100CL  108 9.00000E-05           8                     0    8           1
 -4  PE          1    1
 -5  PE          1    1    0    0
 -1         2 4.49806E-01
 -1        10 4.49806E-01
 -1        13 4.49806E-01
 -1        34 4.49806E-01
 -1        95 4.49806E-01
 -1       105 4.49806E-01
 -1       134 4.49806E-01
 -1       222 4.49806E-01
 -3
    1PSTEP                        25           9           1          
  100CL  109 9.37500E-05           8                     0    9           1
 -4  DISP        4    1
 -5  D1          1    2    1    0
 -5  D2          1    2    2    0
 -5  D3          1    2    3    0
 -5  ALL         1    2    0    0    1ALL
 -1         2 0.00000E+00 0.00000E+00 0.00000E+00
 -1        10 1.04444E-01 0.00000E+00 0.00000E+00
 -1        13 9.75207E-17-1.04444E-01 0.00000E+00
 -1        34 4.31206E-17-6.25378E-18 5.97993E-01
 -1        95 1.04444E-01-1.04444E-01 0.00000E+00
 -1       105 1.04444E-01-6.49323E-18 5.97993E-01
 -1       134 1.36992E-16-1.04444E-01 5.97993E-01
 -1       222 1.04444E-01-1.04444E-01 5.97993E-01
 -3
    1PSTEP                        26           9           1          
  100CL  109 9.37500E-05           8                     0    9           1
 -4  STRESS      6    1
 -5  SXX         1    4    1    1
 -5  SYY         1    4    2    2
 -5  SZZ         1    4    3    3
 -5  SXY         1    4    1    2
 -5  SYZ         1    4    2    3
 -5  SZX         1    4    3    1
 -1         2-2.34456E-02-2.34456E-02 9.36822E+01 8.99007E-12 1.41941E-13 5.74521E-14
 -1        10-2.34456E-02-2.34456E-02 9.36822E+01 8.99007E-12 1.41941E-13 5.74521E-14
 -1        13-2.34456E-02-2.34456E-02 9.36822E+01 8.99007E-12 1.41941E-13 5.74521E-14
 -1        34-2.34456E-02-2.34456E-02 9.36822E+01 8.99007E-12 1.41941E-13 5.74521E-14
 -1        95-2.34456E-02-2.34456E-02 9.36822E+01 8.99007E-12 1.41941E-13 5.74521E-14
 -1       105-2.34456E-02-2.34456E-02 9.36822E+01 8.99007E-12 1.41941E-13 5.74521E-14
 -1       134-2.34456E-02-2.34456E-02 9.36822E+01 8.99007E-12 1.41941E-13 5.74521E-14
 -1       222-2.34456E-02-2.34456E-02 9.36822E+01 8.99007E-12 1.41941E-13 5.74521E-14
 -3
    1PSTEP                        27           9           1          
  100CL  109 9.37500E-05           8                     0    9           1
 -4  PE          1    1
 -5  PE          1    1    0    0
 -1         2 4.68528E-01
 -1        10 4.68528E-01
 -1        13 4.68528E-01
 -1        34 4.68528E-01
 -1        95 4.68528E-01
 -1       105 4.68528E-01
 -1       134 4.68528E-01
 -1       222 4.68528E-01
 -3
    1PSTEP                        28          10           1          
  100CL  110 9.75000E-05           8                     0   10           1
 -4  DISP        4    1
 -5  D1          1    2    1    0
 -5  D2          1    2    2    0
 -5  D3          1    2    3    0
 -5  ALL         1    2    0    0    1ALL
 -1         2 0.00000E+00 0.00000E+00 0.00000E+00
 -1        10 1.08148E-01 0.00000E+00 0.00000E+00
 -1        13 1.95053E-16-1.08148E-01 0.00000E+00
 -1        34 4.91693E-17-8.60372E-18 6.28348E-01
 -1        95 1.08148E-01-1.08148E-01 0.00000E+00
 -1       105 1.08148E-01-1.53993E-17 6.28348E-01
 -1       134 2.44813E-16-1.08148E-01 6.28348E-01
 -1       222 1.08148E-01-1.08148E-01 6.28348E-01
 -3
    1PSTEP                        29          10           1          
  100CL  110 9.75000E-05           8                     0   10           1
 -4  STRESS      6    1
 -5  SXX         1    4    1    1
 -5  SYY         1    4    2    2
 -5  SZZ         1    4    3    3
 -5  SXY         1    4    1    2
 -5  SYZ         1    4    2    3
 -5  SZX         1    4    3    1
 -1         2-6.53241E-03-6.53241E-03 9.74608E+01 2.91154E-12 4.16953E-14 5.99367E-14
 -1        10-6.53241E-03-6.53241E-03 9.74608E+01 2.91154E-12 4.16953E-14 5.99367E-14
 -1        13-6.53241E-03-6.53241E-03 9.74608E+01 2.91154E-12 4.16953E-14 5.99367E-14
 -1        34-6.53241E-03-6.53241E-03 9.74608E+01 2.91154E-12 4.16953E-14 5.99367E-14
 -1        95-6.53241E-03-6.53241E-03 9.74608E+01 2.91154E-12 4.16953E-14 5.99367E-14
 -1       105-6.53241E-03-6.53241E-03 9.74608E+01 2.91154E-12 4.16953E-14 5.99367E-14
 -1       134-6.53241E-03-6.53241E-03 9.74608E+01 2.91154E-12 4.16953E-14 5.99367E-14
 -1       222-6.53241E-03-6.53241E-03 9.74608E+01 2.91154E-12 4.16953E-14 5.99367E-14
 -3
    1PSTEP                        30          10           1          
  100CL  110 9.75000E-05           8                     0   10           1
 -4  PE          1    1
 -5  PE          1    1    0    0
 -1         2 4.87337E-01
 -1        10 4.87337E-01
 -1        13 4.87337E-01
 -1        34 4.87337E-01
 -1        95 4.87337E-01
 -1       105 4.87337E-01
 -1       134 4.87337E-01
 -1       222 4.87337E-01
 -3
    1PSTEP                        31          11           1          
  100CL  111 1.00000E-04           8                     0   11           1
 -4  DISP        4    1
 -5  D1          1    2    1    0
 -5  D2          1    2    2    0
 -5  D3          1    2    3    0
 -5  ALL         1    2    0    0    1ALL
 -1         2 0.00000E+00 0.00000E+00 0.00000E+00
 -1        10 1.10630E-01 0.00000E+00 0.00000E+00
 -1        13 2.76870E-16-1.10630E-01 0.00000E+00
 -1        34 4.82175E-17-1.69863E-17 6.49178E-01
 -1        95 1.10630E-01-1.10630E-01 0.00000E+00
 -1       105 1.10630E-01-1.42537E-17 6.49178E-01
 -1       134 3.28593E-16-1.10630E-01 6.49178E-01
 -1       222 1.10630E-01-1.10630E-01 6.49178E-01
 -3
    1PSTEP                        32          11           1          
  100CL  111 1.00000E-04           8                     0   11           1
 -4  STRESS      6    1
 -5  SXX         1    4    1    1
 -5  SYY         1    4    2    2
 -5  SZZ         1    4    3    3
 -5  SXY         1    4    1    2
 -5  SYZ         1    4    2    3
 -5  SZX         1    4    3    1
 -1         2-5.59103E-03-5.59103E-03 1.00003E+02 1.76273E-12-2.53160E-13-6.60158E-14
 -1        10-5.59103E-03-5.59103E-03 1.00003E+02 1.76273E-12-2.53160E-13-6.60158E-14
 -1        13-5.59103E-03-5.59103E-03 1.00003E+02 1.76273E-12-2.53160E-13-6.60158E-14
 -1        34-5.59103E-03-5.59103E-03 1.00003E+02 1.76273E-12-2.53160E-13-6.60158E-14
 -1        95-5.59103E-03-5.59103E-03 1.00003E+02 1.76273E-12-2.53160E-13-6.60158E-14
 -1       105-5.59103E-03-5.59103E-03 1.00003E+02 1.76273E-12-2.53160E-13-6.60158E-14
 -1       134-5.59103E-03-5.59103E-03 1.00003E+02 1.76273E-12-2.53160E-13-6.60158E-14
 -1       222-5.59103E-03-5.59103E-03 1.00003E+02 1.76273E-12-2.53160E-13-6.60158E-14
 -3
    1PSTEP                        33          11           1          
  100CL  111 1.00000E-04           8                     0   11           1
 -4  PE          1    1
 -5  PE          1    1    0    0
 -1         2 5.00042E-01
 -1        10 5.00042E-01
 -1        13 5.00042E-01
 -1        34 5.00042E-01
 -1        95 5.00042E-01
 -1       105 5.00042E-01
 -1       134 5.00042E-01
 -1       222 5.00042E-01
 -3
    1PSTEP                        34           1           2          
  100CL  112 1.10000E-04           8                     0   12           1
 -4  DISP        4    1
 -5  D1          1    2    1    0
 -5  D2          1    2    2    0
 -5  D3          1    2    3    0
 -5  ALL         1    2    0    0    1ALL
 -1         2 0.00000E+00 0.00000E+00 0.00000E+00
 -1        10 1.10630E-01 0.00000E+00 0.00000E+00
 -1        13 3.27577E-16-1.10630E-01 0.00000E+00
 -1        34 4.46146E-17-1.13324E-17 6.49178E-01
 -1        95 1.10630E-01-1.10630E-01 0.00000E+00
 -1       105 1.10630E-01-8.62346E-18 6.49178E-01
 -1       134 3.75648E-16-1.10630E-01 6.49178E-01
 -1       222 1.10630E-01-1.10630E-01 6.49178E-01
 -3
    1PSTEP                        35           1           2          
  100CL  112 1.10000E-04           8                     0   12           1
 -4  STRESS      6    1
 -5  SXX         1    4    1    1
 -5  SYY         1    4    2    2
 -5  SZZ         1    4    3    3
 -5  SXY         1    4    1    2
 -5  SYZ         1    4    2    3
 -5  SZX         1    4    3    1
 -1         2 4.14740E-07 4.14588E-07 1.00000E+02 6.13095E-11 7.15906E-13-5.50549E-13
 -1        10 4.14740E-07 4.14588E-07 1.00000E+02 6.13095E-11 7.15906E-13-5.50549E-13
 -1        13 4.14740E-07 4.14588E-07 1.00000E+02 6.13095E-11 7.15906E-13-5.50549E-13
 -1        34 4.14740E-07 4.14588E-07 1.00000E+02 6.13095E-11 7.15906E-13-5.50549E-13
 -1        95 4.14740E-07 4.14588E-07 1.00000E+02 6.13095E-11 7.15906E-13-5.50549E-13
 -1       105 4.14740E-07 4.14588E-07 1.00000E+02 6.13095E-11 7.15906E-13-5.50549E-13
 -1       134 4.14740E-07 4.14588E-07 1.00000E+02 6.13095E-11 7.15906E-13-5.50549E-13
 -1       222 4.14740E-07 4.14588E-07 1.00000E+02 6.13095E-11 7.15906E-13-5.50549E-13
 -3
    1PSTEP                        36           1           2          
  100CL  112 1.10000E-04           8                     0   12           1
 -4  PE          1    1
 -5  PE          1    1    0    0
 -1         2 5.00042E-01
 -1        10 5.00042E-01
 -1        13 5.00042E-01
 -1        34 5.00042E-01
 -1        95 5.00042E-01
 -1       105 5.00042E-01
 -1       134 5.00042E-01
 -1       222 5.00042E-01
 -3
    1PSTEP                        37           2           2          
  100CL  113 1.20000E-04           8                     0   13           1
 -4  DISP        4    1
 -5  D1          1    2    1    0
 -5  D2          1    2    2    0
 -5  D3          1    2    3    0
 -5  ALL         1    2    0    0    1ALL
 -1         2 0.00000E+00 0.00000E+00 0.00000E+00
 -1        10 1.10630E-01 0.00000E+00 0.00000E+00
 -1        13 2.26515E-16-1.10630E-01 0.00000E+00
 -1        34 4.97611E-17-1.22523E-17 6.49178E-01
 -1        95 1.10630E-01-1.10630E-01 0.00000E+00
 -1       105 1.10630E-01-9.56701E-18 6.49178E-01
 -1       134 2.79681E-16-1.10630E-01 6.49178E-01
 -1       222 1.10630E-01-1.10630E-01 6.49178E-01
 -3
    1PSTEP                        38           2           2          
  100CL  113 1.20000E-04           8                     0   13           1
 -4  STRESS      6    1
 -5  SXX         1    4    1    1
 -5  SYY         1    4    2    2
 -5  SZZ         1    4    3    3
 -5  SXY         1    4    1    2
 -5  SYZ         1    4    2    3
 -5  SZX         1    4    3    1
 -1         2 2.47553E-11-1.33014E-11 1.00000E+02 1.22710E-11 7.15906E-13 4.18517E-13
 -1        10 2.47553E-11-1.33014E-11 1.00000E+02 1.22710E-11 7.15906E-13 4.18517E-13
 -1        13 2.47553E-11-1.33014E-11 1.00000E+02 1.22710E-11 7.15906E-13 4.18517E-13
 -1        34 2.47553E-11-1.33014E-11 1.00000E+02 1.22710E-11 7.15906E-13 4.18517E-13
 -1        95 2.47553E-11-1.33014E-11 1.00000E+02 1.22710E-11 7.15906E-13 4.18517E-13
 -1       105 2.47553E-11-1.33014E-11 1.00000E+02 1.22710E-11 7.15906E-13 4.18517E-13
 -1       134 2.47553E-11-1.33014E-11 1.00000E+02 1.22710E-11 7.15906E-13 4.18517E-13
 -1       222 2.47553E-11-1.33014E-11 1.00000E+02 1.22710E-11 7.15906E-13 4.18517E-13
 -3
    1PSTEP                        39           2           2          
  100CL  113 1.20000E-04           8                     0   13           1
 -4  PE          1    1
 -5  PE          1    1    0    0
 -1         2 5.00042E-01
 -1        10 5.00042E-01
 -1        13 5.00042E-01