    1C
    1UModel: beam     Date: 10-Mar-1998                                 
    1UUSER                                                              
    1UDATE              19.october.2025                                 
    1UTIME              18:38:03                                        
    1UHOST                                                              
    1UPGM               CalculiX                                        
    1UVERSION           Version 2.23                             
    1UCOMPILETIME       Fri Oct 17 18:38:41 CEST 2025                    
    1UDIR                                                               
    1UDBN                                                               
    1UMAT    1ANISO_CREEPEL                                             
    2C                            20                                     1
 -1         2 1.00000E+00 0.00000E+00 0.00000E+00
 -1        10 5.00000E-01 0.00000E+00 0.00000E+00
 -1        11 7.50000E-01 0.00000E+00 0.00000E+00
 -1        12 1.00000E+00 2.50000E-01 0.00000E+00
 -1        13 1.00000E+00 5.00000E-01 0.00000E+00
 -1        33 1.00000E+00 0.00000E+00 5.00000E-01
 -1        34 1.00000E+00 0.00000E+00 1.00000E+00
 -1        93 5.00000E-01 2.50000E-01 0.00000E+00
 -1        95 5.00000E-01 5.00000E-01 0.00000E+00
 -1        96 7.50000E-01 5.00000E-01 0.00000E+00
 -1       103 5.00000E-01 0.00000E+00 5.00000E-01
 -1       105 5.00000E-01 0.00000E+00 1.00000E+00
 -1       106 7.50000E-01 0.00000E+00 1.00000E+00
 -1       132 1.00000E+00 5.00000E-01 5.00000E-01
 -1       133 1.00000E+00 2.50000E-01 1.00000E+00
 -1       134 1.00000E+00 5.00000E-01 1.00000E+00
 -1       219 5.00000E-01 5.00000E-01 5.00000E-01
 -1       220 5.00000E-01 2.50000E-01 1.00000E+00
 -1       222 5.00000E-01 5.00000E-01 1.00000E+00
 -1       223 7.50000E-01 5.00000E-01 1.00000E+00
 -3
    3C                             1                                     1
 -1         1    4    0    1
 -2        10         2        13        95       105        34       134       222        11        12
 -2        96        93       103        33       132       219       106       133       223       220
 -3
    1PSTEP                         1          23           1          
  100CL  101 1000.000000          20                     0    1           1
 -4  DISP        4    1
 -5  D1          1    2    1    0
 -5  D2          1    2    2    0
 -5  D3          1    2    3    0
 -5  ALL         1    2    0    0    1ALL
 -1         2 0.00000E+00 0.00000E+00 0.00000E+00
 -1        10 8.00056E-02 0.00000E+00 0.00000E+00
 -1        11 4.00028E-02-1.00004E-14 0.00000E+00
 -1        12-2.04424E-14-4.00028E-02 0.00000E+00
 -1        13-4.86923E-14-8.00056E-02 0.00000E+00
 -1        33 1.91976E-15-6.66027E-14 1.60024E-01
 -1        34 3.30294E-14-2.00787E-13 3.20047E-01
 -1        93 8.00056E-02-4.00028E-02 0.00000E+00
 -1        95 8.00056E-02-8.00056E-02 0.00000E+00
 -1        96 4.00028E-02-8.00056E-02 0.00000E+00
 -1       103 8.00056E-02-5.87792E-14 1.60024E-01
 -1       105 8.00056E-02-2.03381E-13 3.20047E-01
 -1       106 4.00028E-02-2.01243E-13 3.20047E-01
 -1       132-2.36942E-14-8.00056E-02 1.60024E-01
 -1       133 4.54226E-14-4.00028E-02 3.20047E-01
 -1       134 4.87383E-14-8.00056E-02 3.20047E-01
 -1       219 8.00056E-02-8.00056E-02 1.60024E-01
 -1       220 8.00056E-02-4.00028E-02 3.20047E-01
 -1       222 8.00056E-02-8.00056E-02 3.20047E-01
 -1       223 4.00028E-02-8.00056E-02 3.20047E-01
 -3
    1PSTEP                         2          23           1          
  100CL  101 1000.000000          20                     0    1           1
 -4  STRESS      6    1
 -5  SXX         1    4    1    1
 -5  SYY         1    4    2    2
 -5  SZZ         1    4    3    3
 -5  SXY         1    4    1    2
 -5  SYZ         1    4    2    3
 -5  SZX         1    4    3    1
 -1         2 2.71194E-11 1.69164E-11 1.99992E+01 1.52800E-13 2.06686E-13-1.88485E-12
 -1        10 2.03466E-11 8.51891E-12 1.99992E+01 8.06092E-13-1.19219E-12-7.21981E-13
 -1        11-1.21002E-11-1.51373E-11 2.00010E+01 1.24327E-12 2.28602E-12-1.59317E-12
 -1        12 7.16201E-11 6.82469E-11 2.00010E+01 9.33782E-13 8.82179E-13-1.64951E-12
 -1        13-5.51437E-11-7.60058E-11 1.99992E+01 1.40958E-12 3.82131E-12-1.58353E-13
 -1        33-1.92776E-11-2.09934E-11 2.00010E+01-1.53236E-12-2.78337E-13-1.46607E-12
 -1        34 1.52969E-10 1.46526E-10 1.99992E+01-4.39034E-12 7.85170E-12-4.28748E-12
 -1        93-1.68782E-11-2.07715E-11 2.00010E+01 1.41958E-12 2.15172E-12-1.65056E-12
 -1        95 1.10160E-10 9.75749E-11 1.99992E+01 3.40333E-12 3.32466E-12-6.30008E-13
 -1        96-4.52605E-12-3.46879E-12 2.00010E+01 1.13278E-12 1.46914E-12-6.21175E-13
 -1       103 3.95500E-11 4.42360E-11 2.00010E+01 1.60576E-12-1.12304E-12-3.55268E-13
 -1       105-6.00073E-11-5.28895E-11 1.99992E+01 4.88562E-12 6.71662E-12-4.60114E-12
 -1       106-3.49068E-11-3.38500E-11 2.00010E+01-2.12190E-13-4.47664E-13-2.21585E-12
 -1       132 3.08405E-11 1.50534E-11 2.00010E+01 1.31647E-12 2.49557E-12-2.09549E-12
 -1       133 3.58091E-13 1.69376E-11 2.00010E+01 1.29638E-13 1.36888E-12 1.66800E-12
 -1       134 9.36394E-11 1.23438E-10 1.99992E+01 3.89828E-12-4.53238E-12-8.19142E-12
 -1       219-5.37548E-11-4.72817E-11 2.00010E+01-2.25227E-12-1.13612E-13 1.01475E-12
 -1       220 9.29527E-11 7.72967E-11 2.00010E+01 1.73008E-12 5.11429E-12-2.10861E-12
 -1       222-2.01526E-10-1.89209E-10 1.99992E+01 1.89837E-13 2.86573E-12-4.37004E-12
 -1       223-1.17223E-10-1.12072E-10 2.00010E+01 2.37373E-12 1.26428E-12-6.96932E-12
 -3
    1PSTEP                         3          23           1          
  100CL  101 1000.000000          20                     0    1           1
 -4  PE          1    1
 -5  PE          1    1    0    0
 -1         2 3.19987E-01
 -1        10 3.19987E-01
 -1        11 3.20016E-01
 -1        12 3.20016E-01
 -1        13 3.19987E-01
 -1        33 3.20016E-01
 -1        34 3.19987E-01
 -1        93 3.20016E-01
 -1        95 3.19987E-01
 -1        96 3.20016E-01
 -1       103 3.20016E-01
 -1       105 3.19987E-01
 -1       106 3.20016E-01
 -1       132 3.20016E-01
 -1       133 3.20016E-01
 -1       134 3.19987E-01
 -1       219 3.20016E-01
 -1       220 3.20016E-01
 -1       222 3.19987E-01
 -1       223 3.20016E-01
 -3
    1PSTEP                         4          23           1          
  100CL  101 1000.000000          20                     0    1           1
 -4  ERROR       1    1
 -5  STR(%)      1    1    0    0
 -1         2 4.40165E-11
 -1        10 4.40165E-11
 -1        11 4.40165E-11
 -1        12 4.40165E-11
 -1        13 4.40165E-11
 -1        33 4.40165E-11
 -1        34 4.40165E-11
 -1        93 4.40165E-11
 -1        95 4.40165E-11
 -1        96 4.40165E-11
 -1       103 4.40165E-11
 -1       105 4.40165E-11
 -1       106 4.40165E-11
 -1       132 4.40165E-11
 -1       133 4.40165E-11
 -1       134 4.40165E-11
 -1       219 4.40165E-11
 -1       220 4.40165E-11
 -1       222 4.40165E-11
 -1       223 4.40165E-11
 -3
 9999
