    1C
    1C
    1UUSER
    1UDATE              19.october.2025     
    1UTIME              18:39:43
    1UHOST
    1UPGM               CalculiX
    1UDIR
    1UDBN
    2C                            40                                     1
 -1         1 1.00000E+00 0.00000E+00-1.00000E+00
 -1         2 8.75000E-01 0.00000E+00-1.00000E+00
 -1         3 8.58187E-01-1.70704E-01-1.00000E+00
 -1         4 9.80785E-01-1.95090E-01-1.00000E+00
 -1         5 1.00000E+00 0.00000E+00 0.00000E+00
 -1         6 8.75000E-01 0.00000E+00 0.00000E+00
 -1         7 8.58187E-01-1.70704E-01 0.00000E+00
 -1         8 9.80785E-01-1.95090E-01 0.00000E+00
 -1         9 8.08395E-01-3.34848E-01-1.00000E+00
 -1        10 9.23880E-01-3.82683E-01-1.00000E+00
 -1        11 8.08395E-01-3.34848E-01 0.00000E+00
 -1        12 9.23880E-01-3.82683E-01 0.00000E+00
 -1        13 7.27536E-01-4.86124E-01-1.00000E+00
 -1        14 8.31470E-01-5.55570E-01-1.00000E+00
 -1        15 7.27536E-01-4.86124E-01 0.00000E+00
 -1        16 8.31470E-01-5.55570E-01 0.00000E+00
 -1        17 7.50000E-01 0.00000E+00-1.00000E+00
 -1        18 7.35589E-01-1.46318E-01-1.00000E+00
 -1        19 7.50000E-01 0.00000E+00 0.00000E+00
 -1        20 7.35589E-01-1.46318E-01 0.00000E+00
 -1        21 6.92910E-01-2.87013E-01-1.00000E+00
 -1        22 6.92910E-01-2.87013E-01 0.00000E+00
 -1        23 6.23602E-01-4.16678E-01-1.00000E+00
 -1        24 6.23602E-01-4.16678E-01 0.00000E+00
 -1        25 6.25000E-01 0.00000E+00-1.00000E+00
 -1        26 6.12991E-01-1.21931E-01-1.00000E+00
 -1        27 6.25000E-01 0.00000E+00 0.00000E+00
 -1        28 6.12991E-01-1.21931E-01 0.00000E+00
 -1        29 5.77425E-01-2.39177E-01-1.00000E+00
 -1        30 5.77425E-01-2.39177E-01 0.00000E+00
 -1        31 5.19669E-01-3.47231E-01-1.00000E+00
 -1        32 5.19669E-01-3.47231E-01 0.00000E+00
 -1        33 5.00000E-01 0.00000E+00-1.00000E+00
 -1        34 4.90393E-01-9.75452E-02-1.00000E+00
 -1        35 5.00000E-01 0.00000E+00 0.00000E+00
 -1        36 4.90393E-01-9.75452E-02 0.00000E+00
 -1        37 4.61940E-01-1.91342E-01-1.00000E+00
 -1        38 4.61940E-01-1.91342E-01 0.00000E+00
 -1        39 4.15735E-01-2.77785E-01-1.00000E+00
 -1        40 4.15735E-01-2.77785E-01 0.00000E+00
 -3
    3C                                                                   1
 -1         1    1    0AIR  
 -2         1         2         3         4         5         6         7         8
 -1         2    1    0AIR  
 -2         4         3         9        10         8         7        11        12
 -1         3    1    0AIR  
 -2        10         9        13        14        12        11        15        16
 -1         4    1    0AIR  
 -2         2        17        18         3         6        19        20         7
 -1         5    1    0AIR  
 -2         3        18        21         9         7        20        22        11
 -1         6    1    0AIR  
 -2         9        21        23        13        11        22        24        15
 -1         7    1    0AIR  
 -2        17        25        26        18        19        27        28        20
 -1         8    1    0AIR  
 -2        18        26        29        21        20        28        30        22
 -1         9    1    0AIR  
 -2        21        29        31        23        22        30        32        24
 -1        10    1    0AIR  
 -2        25        33        34        26        27        35        36        28
 -1        11    1    0AIR  
 -2        26        34        37        29        28        36        38        30
 -1        12    1    0AIR  
 -2        29        37        39        31        30        38        40        32
 -3
    1PSHOCKCOEF=     0.0030000000000                                                                                                
    1PSTEP                         1                                                                                                
  100CL  10124.550707388          40                     3    1           1                                                         
 -4  SA3DF       1    1                                                                                                             
 -5  SA          1    1    0    0                                                                                                   
 -1         1 3.00000E-03
 -1         2 6.17875E-04
 -1         3 3.66764E-04
 -1         4 2.99374E-03
 -1         5 3.00000E-03
 -1         6 6.17875E-04
 -1         7 3.66764E-04
 -1         8 2.99374E-03
 -1         9 5.04373E-04
 -1        10 2.99843E-03
 -1        11 5.04373E-04
 -1        12 2.99843E-03
 -1        13 5.76925E-04
 -1        14 3.00000E-03
 -1        15 5.76925E-04
 -1        16 3.00000E-03
 -1        17 6.11093E-04
 -1        18 3.14868E-04
 -1        19 6.11093E-04
 -1        20 3.14868E-04
 -1        21 3.85024E-04
 -1        22 3.85024E-04
 -1        23 5.64318E-04
 -1        24 5.64318E-04
 -1        25 1.89500E-03
 -1        26 1.65506E-03
 -1        27 1.89500E-03
 -1        28 1.65506E-03
 -1        29 1.72080E-03
 -1        30 1.72080E-03
 -1        31 1.87975E-03
 -1        32 1.87975E-03
 -1        33 3.00000E-03
 -1        34 3.00000E-03
 -1        35 3.00000E-03
 -1        36 3.00000E-03
 -1        37 3.00000E-03
 -1        38 3.00000E-03
 -1        39 3.00000E-03
 -1        40 3.00000E-03
 -3
    1PSHOCKCOEF=     0.0030000000000                                                                                                
    1PSTEP                         1                                                                                                
  100CL  10124.550707388          40                     3    1           1                                                         
 -4  V3DF        4    1                                                                                                             
 -5  V1          1    2    1    0                                                                                                   
 -5  V2          1    2    2    0                                                                                                   
 -5  V3          1    2    3    0                                                                                                   
 -5  ALL         1    2    0    0    1ALL                                                                                           
 -1         1 0.00000E+00 1.00000E+00 0.00000E+00
 -1         2-4.64003E-03 1.22909E+00 0.00000E+00
 -1         3 2.35800E-01 1.17478E+00 0.00000E+00
 -1         4 1.95090E-01 9.80785E-01 0.00000E+00
 -1         5 0.00000E+00 1.00000E+00 0.00000E+00
 -1         6-4.64003E-03 1.22909E+00 0.00000E+00
 -1         7 2.35800E-01 1.17478E+00 0.00000E+00
 -1         8 1.95090E-01 9.80785E-01 0.00000E+00
 -1         9 4.68328E-01 1.13152E+00 0.00000E+00
 -1        10 3.82683E-01 9.23880E-01 0.00000E+00
 -1        11 4.68328E-01 1.13152E+00 0.00000E+00
 -1        12 3.82683E-01 9.23880E-01 0.00000E+00
 -1        13 6.78988E-01 1.02453E+00 0.00000E+00
 -1        14 5.55570E-01 8.31470E-01 0.00000E+00
 -1        15 6.78988E-01 1.02453E+00 0.00000E+00
 -1        16 5.55570E-01 8.31470E-01 0.00000E+00
 -1        17 7.68067E-03 1.48749E+00 0.00000E+00
 -1        18 2.82959E-01 1.39511E+00 0.00000E+00
 -1        19 7.68067E-03 1.48749E+00 0.00000E+00
 -1        20 2.82959E-01 1.39511E+00 0.00000E+00
 -1        21 5.70102E-01 1.33956E+00 0.00000E+00
 -1        22 5.70102E-01 1.33956E+00 0.00000E+00
 -1        23 8.32790E-01 1.23253E+00 0.00000E+00
 -1        24 8.32790E-01 1.23253E+00 0.00000E+00
 -1        25 2.45772E-02 1.76084E+00 0.00000E+00
 -1        26 3.44521E-01 1.63525E+00 0.00000E+00
 -1        27 2.45772E-02 1.76084E+00 0.00000E+00
 -1        28 3.44521E-01 1.63525E+00 0.00000E+00
 -1        29 6.69918E-01 1.55160E+00 0.00000E+00
 -1        30 6.69918E-01 1.55160E+00 0.00000E+00
 -1        31 9.98705E-01 1.45043E+00 0.00000E+00
 -1        32 9.98705E-01 1.45043E+00 0.00000E+00
 -1        33 0.00000E+00 2.00000E+00 0.00000E+00
 -1        34 3.90181E-01 1.96157E+00 0.00000E+00
 -1        35 0.00000E+00 2.00000E+00 0.00000E+00
 -1        36 3.90181E-01 1.96157E+00 0.00000E+00
 -1        37 7.65367E-01 1.84776E+00 0.00000E+00
 -1        38 7.65367E-01 1.84776E+00 0.00000E+00
 -1        39 1.11114E+00 1.66294E+00 0.00000E+00
 -1        40 1.11114E+00 1.66294E+00 0.00000E+00
 -3
    1PSHOCKCOEF=     0.0030000000000                                                                                                
    1PSTEP                         1                                                                                                
  100CL  10124.550707388          40                     3    1           1                                                         
 -4  PS3DF       1    1                                                                                                             
 -5  PS          1    1    0    0                                                                                                   
 -1         1 2.79059E+01
 -1         2 1.63896E+01
 -1         3 1.68547E+01
 -1         4 2.78766E+01
 -1         5 2.79059E+01
 -1         6 1.63896E+01
 -1         7 1.68547E+01
 -1         8 2.78766E+01
 -1         9 1.65947E+01
 -1        10 2.78941E+01
 -1        11 1.65947E+01
 -1        12 2.78941E+01
 -1        13 1.63896E+01
 -1        14 2.79059E+01
 -1        15 1.63896E+01
 -1        16 2.79059E+01
 -1        17 8.29903E+00
 -1        18 8.72168E+00
 -1        19 8.29903E+00
 -1        20 8.72168E+00
 -1        21 8.60756E+00
 -1        22 8.60756E+00
 -1        23 8.29903E+00
 -1        24 8.29903E+00
 -1        25 2.41819E+00
 -1        26 2.60844E+00
 -1        27 2.41819E+00
 -1        28 2.60844E+00
 -1        29 2.56063E+00
 -1        30 2.56063E+00
 -1        31 2.41819E+00
 -1        32 2.41819E+00
 -1        33 1.00000E+00
 -1        34 1.00000E+00
 -1        35 1.00000E+00
 -1        36 1.00000E+00
 -1        37 1.00000E+00
 -1        38 1.00000E+00
 -1        39 1.00000E+00
 -1        40 1.00000E+00
 -3
    1PSHOCKCOEF=     0.0030000000000                                                                                                
    1PSTEP                         1                                                                                                
  100CL  10124.550707388          40                     3    1           1                                                         
 -4  TS3DF       1    1                                                                                                             
 -5  TS          1    1    0    0                                                                                                   
 -1         1 1.00000E+00
 -1         2 1.32124E+00
 -1         3 1.31994E+00
 -1         4 1.00000E+00
 -1         5 1.00000E+00
 -1         6 1.32124E+00
 -1         7 1.31994E+00
 -1         8 1.00000E+00
 -1         9 1.33049E+00
 -1        10 1.00000E+00
 -1        11 1.33049E+00
 -1        12 1.00000E+00
 -1        13 1.32124E+00
 -1        14 1.00000E+00
 -1        15 1.32124E+00
 -1        16 1.00000E+00
 -1        17 1.49932E+00
 -1        18 1.50823E+00
 -1        19 1.49932E+00
 -1        20 1.50823E+00
 -1        21 1.51346E+00
 -1        22 1.51346E+00
 -1        23 1.49932E+00
 -1        24 1.49932E+00
 -1        25 1.42946E+00
 -1        26 1.46960E+00
 -1        27 1.42946E+00
 -1        28 1.46960E+00
 -1        29 1.46456E+00
 -1        30 1.46456E+00
 -1        31 1.42946E+00
 -1        32 1.42946E+00
 -1        33 1.00000E+00
 -1        34 1.00000E+00
 -1        35 1.00000E+00
 -1        36 1.00000E+00
 -1        37 1.00000E+00
 -1        38 1.00000E+00
 -1        39 1.00000E+00
 -1        40 1.00000E+00
 -3
 9999
