    1C
    1UUSER                                                              
    1UDATE              19.october.2025                                 
    1UTIME              18:40:12                                        
    1UHOST                                                              
    1UPGM               CalculiX                                        
    1UVERSION           Version 2.23                             
    1UCOMPILETIME       Fri Oct 17 18:38:41 CEST 2025                    
    1UDIR                                                               
    1UDBN                                                               
    1UMAT    1MATERIAL                                                  
    2C                            48                                     1
 -1        12-2.50000E-02 0.00000E+00 2.50000E-02
 -1        13-2.50000E-02 0.00000E+00-2.50000E-02
 -1        14 2.50000E-02 0.00000E+00-2.50000E-02
 -1        15 2.50000E-02 0.00000E+00 2.50000E-02
 -1        20-2.50000E-02 6.25000E-01 2.50000E-02
 -1        21-2.50000E-02 6.25000E-01-2.50000E-02
 -1        22 2.50000E-02 6.25000E-01-2.50000E-02
 -1        23 2.50000E-02 6.25000E-01 2.50000E-02
 -1        28-2.50000E-02 8.75000E-01 2.50000E-02
 -1        29-2.50000E-02 8.75000E-01-2.50000E-02
 -1        30 2.50000E-02 8.75000E-01-2.50000E-02
 -1        31 2.50000E-02 8.75000E-01 2.50000E-02
 -1        36 0.00000E+00 4.75000E-01-2.50000E-02
 -1        37 0.00000E+00 5.25000E-01-2.50000E-02
 -1        38 0.00000E+00 5.25000E-01 2.50000E-02
 -1        39 0.00000E+00 4.75000E-01 2.50000E-02
 -1        45-2.50000E-02 5.00000E-01 2.50000E-02
 -1        46-2.50000E-02 5.00000E-01-2.50000E-02
 -1        47 2.50000E-02 5.00000E-01-2.50000E-02
 -1        48 2.50000E-02 5.00000E-01 2.50000E-02
 -1        53-2.50000E-02 1.25000E-01 2.50000E-02
 -1        54-2.50000E-02 1.25000E-01-2.50000E-02
 -1        55 2.50000E-02 1.25000E-01-2.50000E-02
 -1        56 2.50000E-02 1.25000E-01 2.50000E-02
 -1        61-2.50000E-02 7.50000E-01 2.50000E-02
 -1        62-2.50000E-02 7.50000E-01-2.50000E-02
 -1        63 2.50000E-02 7.50000E-01-2.50000E-02
 -1        64 2.50000E-02 7.50000E-01 2.50000E-02
 -1        69-2.50000E-02 3.75000E-01 2.50000E-02
 -1        70-2.50000E-02 3.75000E-01-2.50000E-02
 -1        71 2.50000E-02 3.75000E-01-2.50000E-02
 -1        72 2.50000E-02 3.75000E-01 2.50000E-02
 -1        77-2.50000E-02 1.00000E+00 2.50000E-02
 -1        78-2.50000E-02 1.00000E+00-2.50000E-02
 -1        79 2.50000E-02 1.00000E+00-2.50000E-02
 -1        80 2.50000E-02 1.00000E+00 2.50000E-02
 -1        85-2.50000E-02 1.12500E+00 2.50000E-02
 -1        86-2.50000E-02 1.12500E+00-2.50000E-02
 -1        87 2.50000E-02 1.12500E+00-2.50000E-02
 -1        88 2.50000E-02 1.12500E+00 2.50000E-02
 -1        93-2.50000E-02 2.50000E-01 2.50000E-02
 -1        94-2.50000E-02 2.50000E-01-2.50000E-02
 -1        95 2.50000E-02 2.50000E-01-2.50000E-02
 -1        96 2.50000E-02 2.50000E-01 2.50000E-02
 -1       101-5.00000E-01 4.75000E-01-2.50000E-02
 -1       102-5.00000E-01 5.25000E-01-2.50000E-02
 -1       103-5.00000E-01 5.25000E-01 2.50000E-02
 -1       104-5.00000E-01 4.75000E-01 2.50000E-02
 -3
    3C                            10                                     1
 -1         1    1    0    1
 -2        53        12        13        54        56        15        14        55
 -1         2    1    0    1
 -2        93        53        54        94        96        56        55        95
 -1         3    1    0    1
 -2        85        77        78        86        88        80        79        87
 -1         4    1    0    1
 -2        77        28        29        78        80        31        30        79
 -1         5    1    0    1
 -2        28        61        62        29        31        64        63        30
 -1         6    1    0    1
 -2        61        20        21        62        64        23        22        63
 -1         7    1    0    1
 -2       101        36        37       102       104        39        38       103
 -1         8    1    0    1
 -2        69        93        94        70        72        96        95        71
 -1         9    1    0    1
 -2        20        45        46        21        23        48        47        22
 -1        10    1    0    1
 -2        45        69        70        46        48        72        71        47
 -3
    1PSTEP                         1           1           1          
  100CL  101 1.000000000          48                     0    1           1
 -4  DISP        4    1
 -5  D1          1    2    1    0
 -5  D2          1    2    2    0
 -5  D3          1    2    3    0
 -5  ALL         1    2    0    0    1ALL
 -1        12-1.58111E-18-1.87742E-05-1.56217E-18
 -1        13 1.57760E-18 1.87742E-05-1.58743E-18
 -1        14 1.58438E-18 1.87742E-05 1.58565E-18
 -1        15-1.58088E-18-1.87742E-05 1.56395E-18
 -1        20 4.08598E-18 4.43951E-06 2.36877E-04
 -1        21 4.06893E-18-4.43951E-06 2.36877E-04
 -1        22 4.09636E-18-4.43951E-06 2.36877E-04
 -1        23 4.07669E-18 4.43951E-06 2.36877E-04
 -1        28 1.09039E-17 1.28589E-05 1.46503E-04
 -1        29 9.00636E-18-1.28589E-05 1.46503E-04
 -1        30 9.00480E-18-1.28589E-05 1.46503E-04
 -1        31 1.09010E-17 1.28589E-05 1.46503E-04
 -1        36 1.23832E-05-9.63765E-19 2.47663E-04
 -1        37 1.23832E-05-9.48776E-19 2.47663E-04
 -1        38-1.23832E-05-9.75782E-19 2.47663E-04
 -1        39-1.23832E-05-8.98550E-19 2.47663E-04
 -1        45 4.84503E-19-9.46718E-19 2.47663E-04
 -1        46 4.84503E-19-9.46718E-19 2.47663E-04
 -1        47 4.84503E-19-9.46718E-19 2.47663E-04
 -1        48 4.84503E-19-9.46718E-19 2.47663E-04
 -1        53-3.86578E-18-1.76008E-05 9.12505E-05
 -1        54-7.65127E-19 1.76008E-05 9.12505E-05
 -1        55-7.70376E-19 1.76008E-05 9.12505E-05
 -1        56-3.87316E-18-1.76008E-05 9.12505E-05
 -1        61 9.70221E-18 9.35080E-06 2.02214E-04
 -1        62 8.31363E-18-9.35080E-06 2.02214E-04
 -1        63 8.30359E-18-9.35080E-06 2.02214E-04
 -1        64 9.68752E-18 9.35080E-06 2.02214E-04
 -1        69-2.42976E-18-8.21371E-06 2.26816E-04
 -1        70 8.97855E-20 8.21371E-06 2.26816E-04
 -1        71 1.01644E-19 8.21371E-06 2.26816E-04
 -1        72-2.43945E-18-8.21371E-06 2.26816E-04
 -1        77 7.29710E-18 1.49637E-05 7.67596E-05
 -1        78 5.17473E-18-1.49637E-05 7.67596E-05
 -1        79 5.17871E-18-1.49637E-05 7.67596E-05
 -1        80 7.29157E-18 1.49637E-05 7.67596E-05
 -1        85 1.10291E-18 1.56653E-05 1.10662E-18
 -1        86-1.10308E-18-1.56653E-05 1.12412E-18
 -1        87-1.09876E-18-1.56653E-05-1.12909E-18
 -1        88 1.09892E-18 1.56653E-05-1.10164E-18
 -1        93-4.75328E-18-1.40807E-05 1.70767E-04
 -1        94-1.42958E-18 1.40807E-05 1.70767E-04
 -1        95-1.42640E-18 1.40807E-05 1.70767E-04
 -1        96-4.77049E-18-1.40807E-05 1.70767E-04
 -1       101 1.23832E-05 1.64364E-20 1.44684E-20
 -1       102 1.23832E-05-7.78212E-21-7.16704E-20
 -1       103-1.23832E-05 5.86204E-21 6.30161E-20
 -1       104-1.23832E-05-1.45163E-20-5.81414E-21
 -3
 9999
