    1C
    1UModel: beam     Date: 10-Mar-1998                                 
    1UUSER                                                              
    1UDATE              19.october.2025                                 
    1UTIME              18:41:47                                        
    1UHOST                                                              
    1UPGM               CalculiX                                        
    1UVERSION           Version 2.23                             
    1UCOMPILETIME       Fri Oct 17 18:38:41 CEST 2025                    
    1UDIR                                                               
    1UDBN                                                               
    1UMAT    1UNDO_NLGEOM_LIN_EL_1                                      
    2C                           261                                     1
 -1         1 0.00000E+00 0.00000E+00 0.00000E+00
 -1         2 1.00000E+00 0.00000E+00 0.00000E+00
 -1         3 1.00000E+00 1.00000E+00 0.00000E+00
 -1         4 0.00000E+00 1.00000E+00 0.00000E+00
 -1         5 0.00000E+00 0.00000E+00 8.00000E+00
 -1         6 1.00000E+00 0.00000E+00 8.00000E+00
 -1         7 1.00000E+00 1.00000E+00 8.00000E+00
 -1         8 0.00000E+00 1.00000E+00 8.00000E+00
 -1         9 2.50000E-01 0.00000E+00 0.00000E+00
 -1        10 5.00000E-01 0.00000E+00 0.00000E+00
 -1        11 7.50000E-01 0.00000E+00 0.00000E+00
 -1        12 1.00000E+00 2.50000E-01 0.00000E+00
 -1        13 1.00000E+00 5.00000E-01 0.00000E+00
 -1        14 1.00000E+00 7.50000E-01 0.00000E+00
 -1        15 7.50000E-01 1.00000E+00 0.00000E+00
 -1        16 5.00000E-01 1.00000E+00 0.00000E+00
 -1        17 2.50000E-01 1.00000E+00 0.00000E+00
 -1        18 0.00000E+00 7.50000E-01 0.00000E+00
 -1        19 0.00000E+00 5.00000E-01 0.00000E+00
 -1        20 0.00000E+00 2.50000E-01 0.00000E+00
 -1        21 2.50000E-01 0.00000E+00 8.00000E+00
 -1        22 5.00000E-01 0.00000E+00 8.00000E+00
 -1        23 7.50000E-01 0.00000E+00 8.00000E+00
 -1        24 1.00000E+00 2.50000E-01 8.00000E+00
 -1        25 1.00000E+00 5.00000E-01 8.00000E+00
 -1        26 1.00000E+00 7.50000E-01 8.00000E+00
 -1        27 7.50000E-01 1.00000E+00 8.00000E+00
 -1        28 5.00000E-01 1.00000E+00 8.00000E+00
 -1        29 2.50000E-01 1.00000E+00 8.00000E+00
 -1        30 0.00000E+00 7.50000E-01 8.00000E+00
 -1        31 0.00000E+00 5.00000E-01 8.00000E+00
 -1        32 0.00000E+00 2.50000E-01 8.00000E+00
 -1        33 1.00000E+00 0.00000E+00 5.00000E-01
 -1        34 1.00000E+00 0.00000E+00 1.00000E+00
 -1        35 1.00000E+00 0.00000E+00 1.50000E+00
 -1        36 1.00000E+00 0.00000E+00 2.00000E+00
 -1        37 1.00000E+00 0.00000E+00 2.50000E+00
 -1        38 1.00000E+00 0.00000E+00 3.00000E+00
 -1        39 1.00000E+00 0.00000E+00 3.50000E+00
 -1        40 1.00000E+00 0.00000E+00 4.00000E+00
 -1        41 1.00000E+00 0.00000E+00 4.50000E+00
 -1        42 1.00000E+00 0.00000E+00 5.00000E+00
 -1        43 1.00000E+00 0.00000E+00 5.50000E+00
 -1        44 1.00000E+00 0.00000E+00 6.00000E+00
 -1        45 1.00000E+00 0.00000E+00 6.50000E+00
 -1        46 1.00000E+00 0.00000E+00 7.00000E+00
 -1        47 1.00000E+00 0.00000E+00 7.50000E+00
 -1        48 0.00000E+00 0.00000E+00 7.50000E+00
 -1        49 0.00000E+00 0.00000E+00 7.00000E+00
 -1        50 0.00000E+00 0.00000E+00 6.50000E+00
 -1        51 0.00000E+00 0.00000E+00 6.00000E+00
 -1        52 0.00000E+00 0.00000E+00 5.50000E+00
 -1        53 0.00000E+00 0.00000E+00 5.00000E+00
 -1        54 0.00000E+00 0.00000E+00 4.50000E+00
 -1        55 0.00000E+00 0.00000E+00 4.00000E+00
 -1        56 0.00000E+00 0.00000E+00 3.50000E+00
 -1        57 0.00000E+00 0.00000E+00 3.00000E+00
 -1        58 0.00000E+00 0.00000E+00 2.50000E+00
 -1        59 0.00000E+00 0.00000E+00 2.00000E+00
 -1        60 0.00000E+00 0.00000E+00 1.50000E+00
 -1        61 0.00000E+00 0.00000E+00 1.00000E+00
 -1        62 0.00000E+00 0.00000E+00 5.00000E-01
 -1        63 1.00000E+00 1.00000E+00 5.00000E-01
 -1        64 1.00000E+00 1.00000E+00 1.00000E+00
 -1        65 1.00000E+00 1.00000E+00 1.50000E+00
 -1        66 1.00000E+00 1.00000E+00 2.00000E+00
 -1        67 1.00000E+00 1.00000E+00 2.50000E+00
 -1        68 1.00000E+00 1.00000E+00 3.00000E+00
 -1        69 1.00000E+00 1.00000E+00 3.50000E+00
 -1        70 1.00000E+00 1.00000E+00 4.00000E+00
 -1        71 1.00000E+00 1.00000E+00 4.50000E+00
 -1        72 1.00000E+00 1.00000E+00 5.00000E+00
 -1        73 1.00000E+00 1.00000E+00 5.50000E+00
 -1        74 1.00000E+00 1.00000E+00 6.00000E+00
 -1        75 1.00000E+00 1.00000E+00 6.50000E+00
 -1        76 1.00000E+00 1.00000E+00 7.00000E+00
 -1        77 1.00000E+00 1.00000E+00 7.50000E+00
 -1        78 0.00000E+00 1.00000E+00 5.00000E-01
 -1        79 0.00000E+00 1.00000E+00 1.00000E+00
 -1        80 0.00000E+00 1.00000E+00 1.50000E+00
 -1        81 0.00000E+00 1.00000E+00 2.00000E+00
 -1        82 0.00000E+00 1.00000E+00 2.50000E+00
 -1        83 0.00000E+00 1.00000E+00 3.00000E+00
 -1        84 0.00000E+00 1.00000E+00 3.50000E+00
 -1        85 0.00000E+00 1.00000E+00 4.00000E+00
 -1        86 0.00000E+00 1.00000E+00 4.50000E+00
 -1        87 0.00000E+00 1.00000E+00 5.00000E+00
 -1        88 0.00000E+00 1.00000E+00 5.50000E+00
 -1        89 0.00000E+00 1.00000E+00 6.00000E+00
 -1        90 0.00000E+00 1.00000E+00 6.50000E+00
 -1        91 0.00000E+00 1.00000E+00 7.00000E+00
 -1        92 0.00000E+00 1.00000E+00 7.50000E+00
 -1        93 5.00000E-01 2.50000E-01 0.00000E+00
 -1        94 2.50000E-01 5.00000E-01 0.00000E+00
 -1        95 5.00000E-01 5.00000E-01 0.00000E+00
 -1        96 7.50000E-01 5.00000E-01 0.00000E+00
 -1        97 5.00000E-01 7.50000E-01 0.00000E+00
 -1        98 5.00000E-01 2.50000E-01 8.00000E+00
 -1        99 2.50000E-01 5.00000E-01 8.00000E+00
 -1       100 5.00000E-01 5.00000E-01 8.00000E+00
 -1       101 7.50000E-01 5.00000E-01 8.00000E+00
 -1       102 5.00000E-01 7.50000E-01 8.00000E+00
 -1       103 5.00000E-01 0.00000E+00 5.00000E-01
 -1       104 2.50000E-01 0.00000E+00 1.00000E+00
 -1       105 5.00000E-01 0.00000E+00 1.00000E+00
 -1       106 7.50000E-01 0.00000E+00 1.00000E+00
 -1       107 5.00000E-01 0.00000E+00 1.50000E+00
 -1       108 2.50000E-01 0.00000E+00 2.00000E+00
 -1       109 5.00000E-01 0.00000E+00 2.00000E+00
 -1       110 7.50000E-01 0.00000E+00 2.00000E+00
 -1       111 5.00000E-01 0.00000E+00 2.50000E+00
 -1       112 2.50000E-01 0.00000E+00 3.00000E+00
 -1       113 5.00000E-01 0.00000E+00 3.00000E+00
 -1       114 7.50000E-01 0.00000E+00 3.00000E+00
 -1       115 5.00000E-01 0.00000E+00 3.50000E+00
 -1       116 2.50000E-01 0.00000E+00 4.00000E+00
 -1       117 5.00000E-01 0.00000E+00 4.00000E+00
 -1       118 7.50000E-01 0.00000E+00 4.00000E+00
 -1       119 5.00000E-01 0.00000E+00 4.50000E+00
 -1       120 2.50000E-01 0.00000E+00 5.00000E+00
 -1       121 5.00000E-01 0.00000E+00 5.00000E+00
 -1       122 7.50000E-01 0.00000E+00 5.00000E+00
 -1       123 5.00000E-01 0.00000E+00 5.50000E+00
 -1       124 2.50000E-01 0.00000E+00 6.00000E+00
 -1       125 5.00000E-01 0.00000E+00 6.00000E+00
 -1       126 7.50000E-01 0.00000E+00 6.00000E+00
 -1       127 5.00000E-01 0.00000E+00 6.50000E+00
 -1       128 2.50000E-01 0.00000E+00 7.00000E+00
 -1       129 5.00000E-01 0.00000E+00 7.00000E+00
 -1       130 7.50000E-01 0.00000E+00 7.00000E+00
 -1       131 5.00000E-01 0.00000E+00 7.50000E+00
 -1       132 1.00000E+00 5.00000E-01 5.00000E-01
 -1       133 1.00000E+00 2.50000E-01 1.00000E+00
 -1       134 1.00000E+00 5.00000E-01 1.00000E+00
 -1       135 1.00000E+00 7.50000E-01 1.00000E+00
 -1       136 1.00000E+00 5.00000E-01 1.50000E+00
 -1       137 1.00000E+00 2.50000E-01 2.00000E+00
 -1       138 1.00000E+00 5.00000E-01 2.00000E+00
 -1       139 1.00000E+00 7.50000E-01 2.00000E+00
 -1       140 1.00000E+00 5.00000E-01 2.50000E+00
 -1       141 1.00000E+00 2.50000E-01 3.00000E+00
 -1       142 1.00000E+00 5.00000E-01 3.00000E+00
 -1       143 1.00000E+00 7.50000E-01 3.00000E+00
 -1       144 1.00000E+00 5.00000E-01 3.50000E+00
 -1       145 1.00000E+00 2.50000E-01 4.00000E+00
 -1       146 1.00000E+00 5.00000E-01 4.00000E+00
 -1       147 1.00000E+00 7.50000E-01 4.00000E+00
 -1       148 1.00000E+00 5.00000E-01 4.50000E+00
 -1       149 1.00000E+00 2.50000E-01 5.00000E+00
 -1       150 1.00000E+00 5.00000E-01 5.00000E+00
 -1       151 1.00000E+00 7.50000E-01 5.00000E+00
 -1       152 1.00000E+00 5.00000E-01 5.50000E+00
 -1       153 1.00000E+00 2.50000E-01 6.00000E+00
 -1       154 1.00000E+00 5.00000E-01 6.00000E+00
 -1       155 1.00000E+00 7.50000E-01 6.00000E+00
 -1       156 1.00000E+00 5.00000E-01 6.50000E+00
 -1       157 1.00000E+00 2.50000E-01 7.00000E+00
 -1       158 1.00000E+00 5.00000E-01 7.00000E+00
 -1       159 1.00000E+00 7.50000E-01 7.00000E+00
 -1       160 1.00000E+00 5.00000E-01 7.50000E+00
 -1       161 5.00000E-01 1.00000E+00 5.00000E-01
 -1       162 7.50000E-01 1.00000E+00 1.00000E+00
 -1       163 5.00000E-01 1.00000E+00 1.00000E+00
 -1       164 2.50000E-01 1.00000E+00 1.00000E+00
 -1       165 5.00000E-01 1.00000E+00 1.50000E+00
 -1       166 7.50000E-01 1.00000E+00 2.00000E+00
 -1       167 5.00000E-01 1.00000E+00 2.00000E+00
 -1       168 2.50000E-01 1.00000E+00 2.00000E+00
 -1       169 5.00000E-01 1.00000E+00 2.50000E+00
 -1       170 7.50000E-01 1.00000E+00 3.00000E+00
 -1       171 5.00000E-01 1.00000E+00 3.00000E+00
 -1       172 2.50000E-01 1.00000E+00 3.00000E+00
 -1       173 5.00000E-01 1.00000E+00 3.50000E+00
 -1       174 7.50000E-01 1.00000E+00 4.00000E+00
 -1       175 5.00000E-01 1.00000E+00 4.00000E+00
 -1       176 2.50000E-01 1.00000E+00 4.00000E+00
 -1       177 5.00000E-01 1.00000E+00 4.50000E+00
 -1       178 7.50000E-01 1.00000E+00 5.00000E+00
 -1       179 5.00000E-01 1.00000E+00 5.00000E+00
 -1       180 2.50000E-01 1.00000E+00 5.00000E+00
 -1       181 5.00000E-01 1.00000E+00 5.50000E+00
 -1       182 7.50000E-01 1.00000E+00 6.00000E+00
 -1       183 5.00000E-01 1.00000E+00 6.00000E+00
 -1       184 2.50000E-01 1.00000E+00 6.00000E+00
 -1       185 5.00000E-01 1.00000E+00 6.50000E+00
 -1       186 7.50000E-01 1.00000E+00 7.00000E+00
 -1       187 5.00000E-01 1.00000E+00 7.00000E+00
 -1       188 2.50000E-01 1.00000E+00 7.00000E+00
 -1       189 5.00000E-01 1.00000E+00 7.50000E+00
 -1       190 0.00000E+00 5.00000E-01 5.00000E-01
 -1       191 0.00000E+00 7.50000E-01 1.00000E+00
 -1       192 0.00000E+00 5.00000E-01 1.00000E+00
 -1       193 0.00000E+00 2.50000E-01 1.00000E+00
 -1       194 0.00000E+00 5.00000E-01 1.50000E+00
 -1       195 0.00000E+00 7.50000E-01 2.00000E+00
 -1       196 0.00000E+00 5.00000E-01 2.00000E+00
 -1       197 0.00000E+00 2.50000E-01 2.00000E+00
 -1       198 0.00000E+00 5.00000E-01 2.50000E+00
 -1       199 0.00000E+00 7.50000E-01 3.00000E+00
 -1       200 0.00000E+00 5.00000E-01 3.00000E+00
 -1       201 0.00000E+00 2.50000E-01 3.00000E+00
 -1       202 0.00000E+00 5.00000E-01 3.50000E+00
 -1       203 0.00000E+00 7.50000E-01 4.00000E+00
 -1       204 0.00000E+00 5.00000E-01 4.00000E+00
 -1       205 0.00000E+00 2.50000E-01 4.00000E+00
 -1       206 0.00000E+00 5.00000E-01 4.50000E+00
 -1       207 0.00000E+00 7.50000E-01 5.00000E+00
 -1       208 0.00000E+00 5.00000E-01 5.00000E+00
 -1       209 0.00000E+00 2.50000E-01 5.00000E+00
 -1       210 0.00000E+00 5.00000E-01 5.50000E+00
 -1       211 0.00000E+00 7.50000E-01 6.00000E+00
 -1       212 0.00000E+00 5.00000E-01 6.00000E+00
 -1       213 0.00000E+00 2.50000E-01 6.00000E+00
 -1       214 0.00000E+00 5.00000E-01 6.50000E+00
 -1       215 0.00000E+00 7.50000E-01 7.00000E+00
 -1       216 0.00000E+00 5.00000E-01 7.00000E+00
 -1       217 0.00000E+00 2.50000E-01 7.00000E+00
 -1       218 0.00000E+00 5.00000E-01 7.50000E+00
 -1       219 5.00000E-01 5.00000E-01 5.00000E-01
 -1       220 5.00000E-01 2.50000E-01 1.00000E+00
 -1       221 2.50000E-01 5.00000E-01 1.00000E+00
 -1       222 5.00000E-01 5.00000E-01 1.00000E+00
 -1       223 7.50000E-01 5.00000E-01 1.00000E+00
 -1       224 5.00000E-01 7.50000E-01 1.00000E+00
 -1       225 5.00000E-01 5.00000E-01 1.50000E+00
 -1       226 5.00000E-01 2.50000E-01 2.00000E+00
 -1       227 2.50000E-01 5.00000E-01 2.00000E+00
 -1       228 5.00000E-01 5.00000E-01 2.00000E+00
 -1       229 7.50000E-01 5.00000E-01 2.00000E+00
 -1       230 5.00000E-01 7.50000E-01 2.00000E+00
 -1       231 5.00000E-01 5.00000E-01 2.50000E+00
 -1       232 5.00000E-01 2.50000E-01 3.00000E+00
 -1       233 2.50000E-01 5.00000E-01 3.00000E+00
 -1       234 5.00000E-01 5.00000E-01 3.00000E+00
 -1       235 7.50000E-01 5.00000E-01 3.00000E+00
 -1       236 5.00000E-01 7.50000E-01 3.00000E+00
 -1       237 5.00000E-01 5.00000E-01 3.50000E+00
 -1       238 5.00000E-01 2.50000E-01 4.00000E+00
 -1       239 2.50000E-01 5.00000E-01 4.00000E+00
 -1       240 5.00000E-01 5.00000E-01 4.00000E+00
 -1       241 7.50000E-01 5.00000E-01 4.00000E+00
 -1       242 5.00000E-01 7.50000E-01 4.00000E+00
 -1       243 5.00000E-01 5.00000E-01 4.50000E+00
 -1       244 5.00000E-01 2.50000E-01 5.00000E+00
 -1       245 2.50000E-01 5.00000E-01 5.00000E+00
 -1       246 5.00000E-01 5.00000E-01 5.00000E+00
 -1       247 7.50000E-01 5.00000E-01 5.00000E+00
 -1       248 5.00000E-01 7.50000E-01 5.00000E+00
 -1       249 5.00000E-01 5.00000E-01 5.50000E+00
 -1       250 5.00000E-01 2.50000E-01 6.00000E+00
 -1       251 2.50000E-01 5.00000E-01 6.00000E+00
 -1       252 5.00000E-01 5.00000E-01 6.00000E+00
 -1       253 7.50000E-01 5.00000E-01 6.00000E+00
 -1       254 5.00000E-01 7.50000E-01 6.00000E+00
 -1       255 5.00000E-01 5.00000E-01 6.50000E+00
 -1       256 5.00000E-01 2.50000E-01 7.00000E+00
 -1       257 2.50000E-01 5.00000E-01 7.00000E+00
 -1       258 5.00000E-01 5.00000E-01 7.00000E+00
 -1       259 7.50000E-01 5.00000E-01 7.00000E+00
 -1       260 5.00000E-01 7.50000E-01 7.00000E+00
 -1       261 5.00000E-01 5.00000E-01 7.50000E+00
 -3
    3C                            32                                     1
 -1         1    4    0    1
 -2         1        10        95        19        61       105       222       192         9        93
 -2        94        20        62       103       219       190       104       220       221       193
 -1         2    4    0    1
 -2        10         2        13        95       105        34       134       222        11        12
 -2        96        93       103        33       132       219       106       133       223       220
 -1         3    4    0    1
 -2        19        95        16         4       192       222       163        79        94        97
 -2        17        18       190       219       161        78       221       224       164       191
 -1         4    4    0    1
 -2        95        13         3        16       222       134        64       163        96        14
 -2        15        97       219       132        63       161       223       135       162       224
 -1         5    4    0    1
 -2        61       105       222       192        59       109       228       196       104       220
 -2       221       193        60       107       225       194       108       226       227       197
 -1         6    4    0    1
 -2       105        34       134       222       109        36       138       228       106       133
 -2       223       220       107        35       136       225       110       137       229       226
 -1         7    4    0    1
 -2       192       222       163        79       196       228       167        81       221       224
 -2       164       191       194       225       165        80       227       230       168       195
 -1         8    4    0    1
 -2       222       134        64       163       228       138        66       167       223       135
 -2       162       224       225       136        65       165       229       139       166       230
 -1         9    4    0    1
 -2        59       109       228       196        57       113       234       200       108       226
 -2       227       197        58       111       231       198       112       232       233       201
 -1        10    4    0    1
 -2       109        36       138       228       113        38       142       234       110       137
 -2       229       226       111        37       140       231       114       141       235       232
 -1        11    4    0    1
 -2       196       228       167        81       200       234       171        83       227       230
 -2       168       195       198       231       169        82       233       236       172       199
 -1        12    4    0    1
 -2       228       138        66       167       234       142        68       171       229       139
 -2       166       230       231       140        67       169       235       143       170       236
 -1        13    4    0    1
 -2        57       113       234       200        55       117       240       204       112       232
 -2       233       201        56       115       237       202       116       238       239       205
 -1        14    4    0    1
 -2       113        38       142       234       117        40       146       240       114       141
 -2       235       232       115        39       144       237       118       145       241       238
 -1        15    4    0    1
 -2       200       234       171        83       204       240       175        85       233       236
 -2       172       199       202       237       173        84       239       242       176       203
 -1        16    4    0    1
 -2       234       142        68       171       240       146        70       175       235       143
 -2       170       236       237       144        69       173       241       147       174       242
 -1        17    4    0    1
 -2        55       117       240       204        53       121       246       208       116       238
 -2       239       205        54       119       243       206       120       244       245       209
 -1        18    4    0    1
 -2       117        40       146       240       121        42       150       246       118       145
 -2       241       238       119        41       148       243       122       149       247       244
 -1        19    4    0    1
 -2       204       240       175        85       208       246       179        87       239       242
 -2       176       203       206       243       177        86       245       248       180       207
 -1        20    4    0    1
 -2       240       146        70       175       246       150        72       179       241       147
 -2       174       242       243       148        71       177       247       151       178       248
 -1        21    4    0    1
 -2        53       121       246       208        51       125       252       212       120       244
 -2       245       209        52       123       249       210       124       250       251       213
 -1        22    4    0    1
 -2       121        42       150       246       125        44       154       252       122       149
 -2       247       244       123        43       152       249       126       153       253       250
 -1        23    4    0    1
 -2       208       246       179        87       212       252       183        89       245       248
 -2       180       207       210       249       181        88       251       254       184       211
 -1        24    4    0    1
 -2       246       150        72       179       252       154        74       183       247       151
 -2       178       248       249       152        73       181       253       155       182       254
 -1        25    4    0    1
 -2        51       125       252       212        49       129       258       216       124       250
 -2       251       213        50       127       255       214       128       256       257       217
 -1        26    4    0    1
 -2       125        44       154       252       129        46       158       258       126       153
 -2       253       250       127        45       156       255       130       157       259       256
 -1        27    4    0    1
 -2       212       252       183        89       216       258       187        91       251       254
 -2       184       211       214       255       185        90       257       260       188       215
 -1        28    4    0    1
 -2       252       154        74       183       258       158        76       187       253       155
 -2       182       254       255       156        75       185       259       159       186       260
 -1        29    4    0    1
 -2        49       129       258       216         5        22       100        31       128       256
 -2       257       217        48       131       261       218        21        98        99        32
 -1        30    4    0    1
 -2       129        46       158       258        22         6        25       100       130       157
 -2       259       256       131        47       160       261        23        24       101        98
 -1        31    4    0    1
 -2       216       258       187        91        31       100        28         8       257       260
 -2       188       215       218       261       189        92        99       102        29        30
 -1        32    4    0    1
 -2       258       158        76       187       100        25         7        28       259       159
 -2       186       260       261       160        77       189       101        26        27       102
 -3
    1PSTEP                         1           4           1          
  100CL  101 1.000000000         261                     0    1           1
 -4  TOSTRAIN    6    1
 -5  EXX         1    4    1    1
 -5  EYY         1    4    2    2
 -5  EZZ         1    4    3    3
 -5  EXY         1    4    1    2
 -5  EYZ         1    4    2    3
 -5  EZX         1    4    3    1
 -1         1 8.25859E-13 6.59619E-13-1.43733E-12-2.90299E-13 2.14032E-13 1.27508E-13
 -1         2 4.69697E-13 3.14523E-13-1.61588E-12 1.69245E-13 3.83898E-13 1.51210E-15
 -1         3-3.59384E-13 1.89777E-13-2.35572E-12 3.02911E-13 2.81400E-13 8.63082E-14
 -1         4-2.77275E-13-4.23467E-14-2.52193E-12 5.70039E-14 2.10607E-13 4.35859E-13
 -1         5-7.21814E-15-4.71919E-13 1.89401E-12-6.04379E-13 3.24675E-13 4.72897E-13
 -1         6 1.62997E-12-5.99859E-13 2.28294E-12 4.45282E-14 1.49915E-14-1.04066E-12
 -1         7 2.01375E-12 2.37197E-12 3.31578E-12 1.81566E-13-1.86377E-12-1.35525E-12
 -1         8-1.00267E-13 2.01788E-12 2.36633E-12 3.87670E-13-1.60200E-12 1.06603E-13
 -1         9 6.20328E-13 2.46905E-13-1.54346E-12-1.54816E-13 3.84426E-13 1.25915E-13
 -1        10 4.15689E-13-1.96617E-13-1.66341E-12-1.33477E-14 5.34125E-13 1.38890E-13
 -1        11 4.43139E-13 4.35494E-14-1.64656E-12 8.09415E-14 4.48663E-13 7.74857E-14
 -1        12 3.88809E-13 1.87154E-12 2.02324E-12 3.47818E-14-1.17931E-12-3.36566E-13
 -1        13 2.00933E-13 2.12012E-12 5.78454E-12-5.72880E-13-1.44945E-12-6.70982E-13
 -1        14-1.32719E-13 5.00729E-13 1.77550E-12-3.71584E-13 6.25140E-14-2.90506E-13
 -1        15-1.77858E-13 2.99454E-13-2.39637E-12 2.37868E-13 1.71061E-13 1.69665E-13
 -1        16-1.16530E-14 4.21244E-13-2.44655E-12 2.08864E-13 6.82883E-14 2.30863E-13
 -1        17-1.52125E-13 1.95506E-13-2.48900E-12 1.50954E-13 1.43231E-13 3.22282E-13
 -1        18-1.10519E-13-1.01340E-13 1.92784E-12-2.94856E-13 1.81182E-13-3.37907E-13
 -1        19 1.63750E-13 1.46196E-12 6.32702E-12 1.20301E-13-1.47915E-12-1.07030E-12
 -1        20 5.48561E-13 1.87194E-12 2.41954E-12 2.98510E-13-1.44801E-12-4.50713E-13
 -1        21 1.47834E-12 4.45376E-13-2.37579E-12 3.82222E-13-1.06131E-13-4.15619E-13
 -1        22 1.44179E-12 1.46021E-12-6.76921E-12 6.49125E-13-5.25789E-13 5.38259E-13
 -1        23 7.74819E-13 4.78944E-13-2.30494E-12-1.30227E-14-2.49825E-13 6.69995E-13
 -1        24 2.08407E-13 1.44574E-12-1.99980E-12 6.38727E-13-7.17313E-13 3.76087E-13
 -1        25-1.04242E-12 1.51839E-12-6.23607E-12 3.66997E-14 5.46281E-13 1.93699E-12
 -1        26 5.71028E-13 9.58705E-13-1.43690E-12-4.88980E-13 3.39203E-13 3.62947E-13
 -1        27 9.33440E-13 5.16243E-13-1.31217E-12-5.95243E-13 2.78411E-13 5.09096E-13
 -1        28 1.38411E-12-1.61509E-12-5.97897E-12-3.34464E-13 2.29722E-12 5.78630E-13
 -1        29 1.40741E-12 6.35982E-14-1.82575E-12 5.45398E-13 2.85927E-13-5.54789E-13
 -1        30 4.91824E-13 8.19701E-13-2.14570E-12-4.38316E-14 6.21886E-13-3.27719E-13
 -1        31 1.10444E-12 1.74640E-12-6.51449E-12 4.18792E-13 7.61191E-13-7.75312E-13
 -1        32 5.58869E-13 1.69968E-12-2.23862E-12 3.54269E-13-4.99357E-13-1.57842E-13
 -1        33 3.44812E-13-1.12395E-13 7.05260E-13 2.40177E-14-2.41260E-13-6.24726E-14
 -1        34 2.43740E-13 2.45644E-13 2.32150E-12-9.51664E-14-6.27510E-13-2.49906E-13
 -1        35 2.47668E-13 5.48639E-13 1.83100E-12-6.84957E-14-4.31374E-13-3.03611E-13
 -1        36 2.33296E-13 6.93194E-14 1.98853E-12-6.48247E-14-4.64035E-13-2.37488E-13
 -1        37 2.50430E-13 1.33914E-13 1.87212E-12-6.04334E-14-4.44365E-13-2.41559E-13
 -1        38 2.63089E-13 2.33405E-13 1.88275E-12-7.10587E-14-4.52420E-13-2.38883E-13
 -1        39 2.49257E-13 2.33976E-13 1.89878E-12-6.28813E-14-4.38087E-13-2.69102E-13
 -1        40 2.83761E-13 2.13259E-13 1.95689E-12-8.28498E-14-4.71610E-13-2.45753E-13
 -1        41 2.41280E-13 2.08750E-13 1.92864E-12-5.37954E-14-4.54643E-13-2.60351E-13
 -1        42 2.42266E-13 2.37243E-13 1.83321E-12-9.96964E-14-4.77229E-13-1.50065E-13
 -1        43 2.09211E-13 1.86459E-13 1.98824E-12-4.43497E-14-4.11668E-13-3.52767E-13
 -1        44 4.51625E-13 5.54265E-14 1.69104E-12-1.49364E-13-2.98260E-13-2.74271E-13
 -1        45 3.28171E-13 4.66539E-13 2.39753E-12-3.27488E-14-7.74172E-13-1.56544E-13
 -1        46-4.37898E-13 2.83134E-13 1.10021E-12 2.56672E-14-3.19549E-13-1.00737E-13
 -1        47 4.58885E-13-4.71120E-13 4.86103E-13-1.31720E-13 2.84403E-13-3.70275E-13
 -1        48-7.41241E-13-9.21106E-13 2.11636E-14-3.55729E-13 5.30624E-13 4.96930E-13
 -1        49-2.64133E-13-1.06212E-13 1.26470E-12 1.03122E-13-3.17980E-13-1.34284E-13
 -1        50 6.65059E-13 6.40479E-13 2.69195E-12 1.73826E-13-9.07449E-13-5.87335E-13
 -1        51 2.22387E-13 1.08152E-13 1.50798E-12-2.04996E-13-2.81249E-13-1.27351E-13
 -1        52 1.76735E-13 1.45265E-13 2.05381E-12-1.64985E-13-3.75644E-13-1.72632E-13
 -1        53 2.73075E-13 2.21135E-13 1.97083E-12 1.62063E-14-5.36048E-13-3.51435E-13
 -1        54 2.79090E-13 2.37121E-13 2.04471E-12-5.85884E-14-4.91422E-13-2.75238E-13
 -1        55 2.85642E-13 2.25199E-13 2.08471E-12-7.48418E-14-4.91025E-13-2.81042E-13
 -1        56 2.65969E-13 2.34394E-13 2.03505E-12-8.09343E-14-4.73447E-13-2.68627E-13
 -1        57 2.64879E-13 2.41685E-13 2.06772E-12-5.71520E-14-4.92485E-13-2.86877E-13
 -1        58 2.89920E-13 2.07023E-13 2.06598E-12-7.65459E-14-4.83478E-13-2.68506E-13
 -1        59 3.07722E-13 9.23918E-14 2.20719E-12-1.08415E-13-5.42792E-13-2.43947E-13
 -1        60 2.70703E-13 4.51951E-13 1.94342E-12-1.94704E-14-4.85465E-13-3.05969E-13
 -1        61 1.97625E-13 2.39288E-13 2.71403E-12 1.34788E-14-6.63682E-13-3.62065E-13
 -1        62 4.90283E-13 1.20362E-13 1.18942E-12-1.77509E-13-3.69626E-13-1.05421E-13
 -1        63-1.58449E-13-2.49576E-13 1.92137E-13 4.67949E-14 1.80524E-13-1.06013E-13
 -1        64 1.40958E-13-5.86568E-14 2.34145E-12-1.64737E-13-3.43367E-13-2.56713E-13
 -1        65 2.76898E-13 4.11354E-13 1.95506E-12-7.00923E-14-6.08345E-13-2.43744E-13
 -1        66 2.87738E-13 1.83964E-13 1.89213E-12-4.59356E-14-3.96200E-13-2.58807E-13
 -1        67 2.43575E-13 1.54668E-13 1.84246E-12-7.19178E-14-3.91871E-13-2.49021E-13
 -1        68 2.30365E-13 2.08691E-13 1.89446E-12-6.24284E-14-4.55826E-13-2.51172E-13
 -1        69 2.57020E-13 2.29345E-13 1.91159E-12-6.32218E-14-4.63006E-13-2.56379E-13
 -1        70 2.79060E-13 2.29716E-13 1.90241E-12-4.81124E-14-4.55607E-13-2.59200E-13
 -1        71 2.26646E-13 1.80098E-13 1.93424E-12-8.78439E-14-4.35539E-13-2.48811E-13
 -1        72 2.02096E-13 1.65605E-13 1.81741E-12-4.14518E-14-4.01440E-13-2.11389E-13
 -1        73 2.97737E-13 2.55386E-13 2.04244E-12-7.11477E-14-5.11834E-13-3.02282E-13
 -1        74 4.68707E-13 4.38065E-13 1.68161E-12 1.28363E-13-6.04569E-13-3.59157E-13
 -1        75 9.40079E-14 4.12819E-14 2.14336E-12-2.54903E-13-2.88240E-13-1.35275E-13
 -1        76-3.69885E-13-5.28198E-13 1.59889E-12-2.32699E-13-3.40151E-14 8.20252E-14
 -1        77 8.28787E-13 8.97504E-13 1.58709E-12 3.47569E-13-9.63898E-13-6.07358E-13
 -1        78-1.56434E-14 1.27125E-14 5.17313E-13-3.44699E-15-7.91838E-14-9.49211E-14
 -1        79 2.75398E-13 2.23104E-13 2.75408E-12-1.31195E-13-4.93063E-13-4.06710E-13
 -1        80 2.78514E-13 2.74597E-13 2.04735E-12-1.03005E-13-5.09359E-13-2.59288E-13
 -1        81 2.55873E-13 2.15199E-13 2.13920E-12-4.86772E-14-4.51284E-13-3.03166E-13
 -1        82 2.60927E-13 2.38155E-13 2.05435E-12-7.07605E-14-4.86407E-13-2.76875E-13
 -1        83 2.81531E-13 2.28213E-13 2.05227E-12-7.33014E-14-4.69009E-13-2.87145E-13
 -1        84 2.76511E-13 2.20048E-13 2.06156E-12-6.64888E-14-4.98818E-13-2.62304E-13
 -1        85 2.82517E-13 2.66369E-13 2.05575E-12-9.12632E-14-4.66969E-13-2.93564E-13
 -1        86 2.66171E-13 2.04072E-13 2.05756E-12-5.60721E-14-4.88416E-13-2.70169E-13
 -1        87 2.87661E-13 2.12436E-13 1.92616E-12-1.09604E-13-3.53194E-13-3.15402E-13
 -1        88 2.56419E-13 1.90803E-13 2.08752E-12-3.89644E-14-5.85920E-13-2.20405E-13
 -1        89 1.64252E-13 4.45320E-13 1.78405E-12-1.59170E-13-4.73395E-13-1.36472E-13
 -1        90 4.32505E-13 2.17718E-13 2.32467E-12-4.16714E-14-3.81368E-13-5.08724E-13
 -1        91 2.11612E-13-5.06885E-13 1.43009E-12-4.27965E-14-1.99399E-13-2.36025E-13
 -1        92-1.85331E-13 7.13418E-13 9.13483E-13-5.32606E-14-5.72538E-13 1.85433E-13
 -1        93 3.52640E-13 1.55337E-12 2.18520E-12 2.05604E-13-1.25869E-12-3.45579E-13