    1C
    1UUSER                                                              
    1UDATE              19.october.2025                                 
    1UTIME              18:42:10                                        
    1UHOST                                                              
    1UPGM               CalculiX                                        
    1UVERSION           Version 2.23                             
    1UCOMPILETIME       Fri Oct 17 18:38:41 CEST 2025                    
    1UDIR                                                               
    1UDBN                                                               
    1UMAT    1EL                                                        
    2C                            36                                     1
 -1        10 0.00000E+00 0.00000E+00-5.00000E-01
 -1        11 0.00000E+00 0.00000E+00 0.00000E+00
 -1        12 0.00000E+00 0.00000E+00 5.00000E-01
 -1        13 1.00000E+00 0.00000E+00-5.00000E-01
 -1        14 1.00000E+00 0.00000E+00 0.00000E+00
 -1        15 1.00000E+00 0.00000E+00 5.00000E-01
 -1        16 1.00000E+00 1.00000E+00-5.00000E-01
 -1        17 1.00000E+00 1.00000E+00 0.00000E+00
 -1        18 1.00000E+00 1.00000E+00 5.00000E-01
 -1        19 9.64645E-01 9.64645E-01 5.00000E-02
 -1        20 1.03536E+00 1.03536E+00 5.00000E-02
 -1        21 1.03536E+00 1.03536E+00-5.00000E-02
 -1        22 9.64645E-01 9.64645E-01-5.00000E-02
 -1        28 0.00000E+00 1.00000E+00-5.00000E-01
 -1        29 0.00000E+00 1.00000E+00 0.00000E+00
 -1        30 0.00000E+00 1.00000E+00 5.00000E-01
 -1        31 3.53553E-02 9.64645E-01-5.00000E-02
 -1        32-3.53553E-02 1.03536E+00-5.00000E-02
 -1        33-3.53553E-02 1.03536E+00 5.00000E-02
 -1        34 3.53553E-02 9.64645E-01 5.00000E-02
 -1        40 5.00000E-01 0.00000E+00-5.00000E-01
 -1        42 5.00000E-01 0.00000E+00 5.00000E-01
 -1        43 1.00000E+00 5.00000E-01-5.00000E-01
 -1        45 1.00000E+00 5.00000E-01 5.00000E-01
 -1        46 5.00000E-01 1.00000E+00-5.00000E-01
 -1        48 5.00000E-01 1.00000E+00 5.00000E-01
 -1        49 0.00000E+00 5.00000E-01-5.00000E-01
 -1        51 0.00000E+00 5.00000E-01 5.00000E-01
 -1        52 4.64645E-01 1.46464E+00 5.00000E-02
 -1        53 5.35355E-01 1.53536E+00 5.00000E-02
 -1        54 5.35355E-01 1.53536E+00-5.00000E-02
 -1        55 4.64645E-01 1.46464E+00-5.00000E-02
 -1        61 5.35355E-01 1.46464E+00-5.00000E-02
 -1        62 4.64645E-01 1.53536E+00-5.00000E-02
 -1        63 4.64645E-01 1.53536E+00 5.00000E-02
 -1        64 5.35355E-01 1.46464E+00 5.00000E-02
 -3
    3C                             3                                     1
 -1         1    4    0    1
 -2        10        13        16        28        12        15        18        30        40        43
 -2        46        49        11        14        17        29        42        45        48        51
 -1         3    1    0    1
 -2        19        52        53        20        22        55        54        21
 -1         4    1    0    1
 -2        31        61        62        32        34        64        63        33
 -3
    1PSTEP                         1           1           1          
  100CL  101 1.000000000          36                     0    1           1
 -4  DISP        4    1
 -5  D1          1    2    1    0
 -5  D2          1    2    2    0
 -5  D3          1    2    3    0
 -5  ALL         1    2    0    0    1ALL
 -1        10 0.00000E+00 0.00000E+00 0.00000E+00
 -1        11 0.00000E+00 0.00000E+00 0.00000E+00
 -1        12 0.00000E+00 0.00000E+00 0.00000E+00
 -1        13-1.66582E-06 0.00000E+00 0.00000E+00
 -1        14-1.66582E-06 0.00000E+00 0.00000E+00
 -1        15-1.66582E-06 0.00000E+00 0.00000E+00
 -1        16-1.13417E-05 1.15118E-05 0.00000E+00
 -1        17-1.13417E-05 1.15118E-05 0.00000E+00
 -1        18-1.13417E-05 1.15118E-05 0.00000E+00
 -1        19-2.04181E-05 2.77311E-05-5.05076E-06
 -1        20-2.26529E-06-4.70743E-06-5.05076E-06
 -1        21-2.26529E-06-4.70743E-06 5.05076E-06
 -1        22-2.04181E-05 2.77311E-05 5.05076E-06
 -1        28 9.67588E-06 1.15118E-05 0.00000E+00
 -1        29 9.67588E-06 1.15118E-05 0.00000E+00
 -1        30 9.67588E-06 1.15118E-05 0.00000E+00
 -1        31 1.87523E-05 2.77311E-05 5.05076E-06
 -1        32 5.99463E-07-4.70743E-06 5.05076E-06
 -1        33 5.99463E-07-4.70743E-06-5.05076E-06
 -1        34 1.87523E-05 2.77311E-05-5.05076E-06
 -1        40-8.32911E-07 0.00000E+00 0.00000E+00
 -1        42-8.32911E-07 0.00000E+00 0.00000E+00
 -1        43-1.01534E-06 4.71922E-06 0.00000E+00
 -1        45-1.01534E-06 4.71922E-06 0.00000E+00
 -1        46-8.32911E-07 2.13693E-06 0.00000E+00
 -1        48-8.32911E-07 2.13693E-06 0.00000E+00
 -1        49-6.50479E-07 4.71922E-06 0.00000E+00
 -1        51-6.50479E-07 4.71922E-06 0.00000E+00
 -1        52-9.90933E-06 3.74957E-04-5.05076E-06
 -1        53 8.24351E-06 3.42519E-04-5.05076E-06
 -1        54 8.24351E-06 3.42519E-04 5.05076E-06
 -1        55-9.90933E-06 3.74957E-04 5.05076E-06
 -1        61 8.24351E-06 3.74957E-04 5.05076E-06
 -1        62-9.90933E-06 3.42519E-04 5.05076E-06
 -1        63-9.90933E-06 3.42519E-04-5.05076E-06
 -1        64 8.24351E-06 3.74957E-04-5.05076E-06
 -3
    1PSTEP                         2           1           1          
  100CL  101 1.000000000          36                     0    1           1
 -4  STRESS      6    1
 -5  SXX         1    4    1    1
 -5  SYY         1    4    2    2
 -5  SZZ         1    4    3    3
 -5  SXY         1    4    1    2
 -5  SYZ         1    4    2    3
 -5  SZX         1    4    3    1
 -1        10 4.21423E-01 1.88018E+00 6.90480E-01-9.91674E-01-3.01122E-16-2.28487E-16
 -1        11 4.21366E-01 1.88027E+00 6.90492E-01-9.91674E-01-1.17721E-16 1.54886E-18
 -1        12 4.21423E-01 1.88018E+00 6.90480E-01-9.91674E-01 5.91568E-16 1.22313E-16
 -1        13 4.21423E-01 1.88018E+00 6.90480E-01 9.91674E-01 9.06063E-17 6.16803E-17
 -1        14 4.21366E-01 1.88027E+00 6.90492E-01 9.91674E-01 9.18068E-17-3.02634E-17
 -1        15 4.21423E-01 1.88018E+00 6.90480E-01 9.91674E-01-1.78078E-17-1.33639E-16
 -1        16-4.04439E+00 1.88018E+00-6.49263E-01 4.74124E-01-1.53830E-15 2.51246E-15
 -1        17-4.04444E+00 1.88027E+00-6.49251E-01 4.74124E-01-6.80405E-17 1.14391E-17
 -1        18-4.04439E+00 1.88018E+00-6.49263E-01 4.74124E-01 1.59689E-15-3.18000E-15
 -1        19 3.53539E+01 3.53539E+01 5.44335E-13-3.53539E+01-6.25232E-13 3.65725E-13
 -1        20 3.53539E+01 3.53539E+01 5.44299E-13-3.53539E+01 4.56647E-13 1.39114E-14
 -1        21 3.53539E+01 3.53539E+01 8.74924E-14-3.53539E+01 3.64970E-13-1.41296E-13
 -1        22 3.53539E+01 3.53539E+01-5.90963E-13-3.53539E+01-7.84757E-13 2.53997E-13
 -1        28-4.04439E+00 1.88018E+00-6.49263E-01-4.74124E-01-7.03228E-16 5.17930E-16
 -1        29-4.04444E+00 1.88027E+00-6.49251E-01-4.74124E-01-2.63321E-16 2.32129E-17
 -1        30-4.04439E+00 1.88018E+00-6.49263E-01-4.74124E-01-5.59847E-16 1.37314E-16
 -1        31 3.53539E+01 3.53539E+01-7.09258E-13 3.53539E+01-6.41542E-13-3.19756E-13
 -1        32 3.53539E+01 3.53539E+01 7.84935E-13 3.53539E+01 3.16006E-13 4.79081E-13
 -1        33 3.53539E+01 3.53539E+01 4.38388E-13 3.53539E+01 4.75745E-13 1.34380E-13
 -1        34 3.53539E+01 3.53539E+01-3.39908E-13 3.53539E+01-3.01488E-13-5.98544E-13
 -1        40-7.14450E-01-7.69963E-01-4.45324E-01 5.15560E-15 2.31503E-16 5.44910E-17
 -1        42-7.14450E-01-7.69963E-01-4.45324E-01 5.21805E-15-9.55813E-17-9.26122E-18
 -1        43 1.29155E+00 3.21017E+00 1.35052E+00 7.32899E-01-1.23871E-15 1.99507E-16
 -1        45 1.29155E+00 3.21017E+00 1.35052E+00 7.32899E-01 1.04228E-15-6.46897E-16
 -1        46-5.18026E+00-7.69963E-01-1.78507E+00 5.49560E-15-7.67203E-16 5.87260E-16
 -1        48-5.18026E+00-7.69963E-01-1.78507E+00 5.55112E-15 6.16078E-16-5.59741E-16
 -1        49 1.29155E+00 3.21017E+00 1.35052E+00-7.32899E-01 1.09367E-16 4.46898E-16
 -1        51 1.29155E+00 3.21017E+00 1.35052E+00-7.32899E-01-2.32199E-16-2.85461E-16
 -1        52 3.53539E+01 3.53539E+01 6.90530E-13-3.53539E+01 9.42212E-13-8.60557E-13
 -1        53 3.53539E+01 3.53539E+01-9.97090E-13-3.53539E+01-1.24334E-12 3.95356E-13
 -1        54 3.53539E+01 3.53539E+01 9.51341E-14-3.53539E+01-1.08636E-12 6.02674E-13
 -1        55 3.53539E+01 3.53539E+01 1.28887E-12-3.53539E+01 1.21935E-12-6.07183E-13
 -1        61 3.53539E+01 3.53539E+01 2.38402E-13 3.53539E+01 5.26323E-13 7.02752E-13
 -1        62 3.53539E+01 3.53539E+01-9.33716E-13 3.53539E+01-1.01581E-12-8.58252E-13
 -1        63 3.53539E+01 3.53539E+01-1.27845E-12 3.53539E+01-1.13015E-12-6.59908E-13
 -1        64 3.53539E+01 3.53539E+01 7.01863E-13 3.53539E+01 2.64448E-13 9.85315E-13
 -3
    1PSTEP                         3           1           1          
  100CL  101 1.000000000          36                     0    1           1
 -4  FORC        4    1
 -5  F1          1    2    1    0
 -5  F2          1    2    2    0
 -5  F3          1    2    3    0
 -5  ALL         1    2    0    0    1ALL
 -1        10-9.37085E-16 1.60965E-01-1.79458E-03
 -1        11-3.23318E-15-3.33333E-01-3.12250E-17
 -1        12-9.62833E-16 1.60965E-01 1.79458E-03
 -1        13 9.70411E-17 1.60965E-01-1.79458E-03
 -1        14-1.73679E-17-3.33333E-01 7.80626E-18
 -1        15 1.12014E-16 1.60965E-01 1.79458E-03
 -1        16-8.33333E-02 8.33333E-02 3.54203E-02
 -1        17-3.33333E-01 3.33333E-01-3.46945E-17
 -1        18-8.33333E-02 8.33333E-02-3.54203E-02
 -1        19 1.25000E-01-1.25000E-01 4.75286E-15
 -1        20 1.25000E-01-1.25000E-01 2.21272E-15
 -1        21 1.25000E-01-1.25000E-01-3.01138E-15
 -1        22 1.25000E-01-1.25000E-01-3.26552E-15
 -1        28 8.33333E-02 8.33333E-02 3.54203E-02
 -1        29 3.33333E-01 3.33333E-01-6.93889E-18
 -1        30 8.33333E-02 8.33333E-02-3.54203E-02
 -1        31-1.25000E-01-1.25000E-01 3.94968E-15
 -1        32-1.25000E-01-1.25000E-01-5.05716E-16
 -1        33-1.25000E-01-1.25000E-01-8.82724E-16
 -1        34-1.25000E-01-1.25000E-01-1.11037E-15
 -1        40-5.84717E-17-4.88597E-01-7.39496E-02
 -1        42-3.90523E-17-4.88597E-01 7.39496E-02
 -1        43-2.00794E-16 5.21805E-16-1.09106E-01
 -1        45-2.22045E-16 5.06886E-16 1.09106E-01
 -1        46-1.37422E-16 2.47170E-18 7.49101E-02
 -1        48-1.83014E-16 3.33070E-17-7.49101E-02
 -1        49 3.10916E-16 1.19855E-16-1.09106E-01
 -1        51 3.12229E-16 1.60520E-16 1.09106E-01
 -1        52-1.25000E-01 1.25000E-01 8.52624E-15
 -1        53-1.25000E-01 1.25000E-01-7.95759E-16
 -1        54-1.25000E-01 1.25000E-01-2.99249E-15
 -1        55-1.25000E-01 1.25000E-01-5.42668E-15
 -1        61 1.25000E-01 1.25000E-01 4.16910E-15
 -1        62 1.25000E-01 1.25000E-01 2.09011E-15
 -1        63 1.25000E-01 1.25000E-01-9.27413E-15
 -1        64 1.25000E-01 1.25000E-01 1.56405E-15
 -3
 9999
