    1C
    1UUSER                                                              
    1UDATE              19.october.2025                                 
    1UTIME              18:43:40                                        
    1UHOST                                                              
    1UPGM               CalculiX                                        
    1UVERSION           Version 2.23                             
    1UCOMPILETIME       Fri Oct 17 18:38:41 CEST 2025                    
    1UDIR                                                               
    1UDBN                                                               
    1UMAT    1EL                                                        
    2C                            51                                     1
 -1        22-7.45058E-09-7.45058E-09-5.00000E-03
 -1        23-7.45058E-09-7.45058E-09 0.00000E+00
 -1        24-7.45058E-09-7.45058E-09 5.00000E-03
 -1        25 5.00000E-01-7.45058E-09-1.50000E-02
 -1        26 5.00000E-01-7.45058E-09 0.00000E+00
 -1        27 5.00000E-01-7.45058E-09 1.50000E-02
 -1        28 5.00000E-01 5.00000E-01-1.50000E-02
 -1        29 5.00000E-01 5.00000E-01 0.00000E+00
 -1        30 5.00000E-01 5.00000E-01 1.50000E-02
 -1        31-7.45058E-09 5.00000E-01-5.00000E-03
 -1        32-7.45058E-09 5.00000E-01 0.00000E+00
 -1        33-7.45058E-09 5.00000E-01 5.00000E-03
 -1        34 2.50000E-01-7.45058E-09-1.00000E-02
 -1        36 2.50000E-01-7.45058E-09 1.00000E-02
 -1        37 5.00000E-01 2.50000E-01-1.50000E-02
 -1        39 5.00000E-01 2.50000E-01 1.50000E-02
 -1        40 2.50000E-01 5.00000E-01-1.00000E-02
 -1        42 2.50000E-01 5.00000E-01 1.00000E-02
 -1        43-7.45058E-09 2.50000E-01-5.00000E-03
 -1        45-7.45058E-09 2.50000E-01 5.00000E-03
 -1        46 5.00000E-01 1.00000E+00-1.50000E-02
 -1        47 5.00000E-01 1.00000E+00 0.00000E+00
 -1        48 5.00000E-01 1.00000E+00 1.50000E-02
 -1        49-7.45058E-09 1.00000E+00-5.00000E-03
 -1        50-7.45058E-09 1.00000E+00 0.00000E+00
 -1        51-7.45058E-09 1.00000E+00 5.00000E-03
 -1        52 5.00000E-01 7.50000E-01-1.50000E-02
 -1        54 5.00000E-01 7.50000E-01 1.50000E-02
 -1        55 2.50000E-01 1.00000E+00-1.00000E-02
 -1        57 2.50000E-01 1.00000E+00 1.00000E-02
 -1        58-7.45058E-09 7.50000E-01-5.00000E-03
 -1        60-7.45058E-09 7.50000E-01 5.00000E-03
 -1        61 1.00000E+00-7.45058E-09-1.00000E-02
 -1        62 1.00000E+00-7.45058E-09 0.00000E+00
 -1        63 1.00000E+00-7.45058E-09 1.00000E-02
 -1        64 1.00000E+00 5.00000E-01-1.00000E-02
 -1        65 1.00000E+00 5.00000E-01 0.00000E+00
 -1        66 1.00000E+00 5.00000E-01 1.00000E-02
 -1        67 7.50000E-01-7.45058E-09-1.25000E-02
 -1        69 7.50000E-01-7.45058E-09 1.25000E-02
 -1        70 1.00000E+00 2.50000E-01-1.00000E-02
 -1        72 1.00000E+00 2.50000E-01 1.00000E-02
 -1        73 7.50000E-01 5.00000E-01-1.25000E-02
 -1        75 7.50000E-01 5.00000E-01 1.25000E-02
 -1        76 1.00000E+00 1.00000E+00-1.00000E-02
 -1        77 1.00000E+00 1.00000E+00 0.00000E+00
 -1        78 1.00000E+00 1.00000E+00 1.00000E-02
 -1        79 1.00000E+00 7.50000E-01-1.00000E-02
 -1        81 1.00000E+00 7.50000E-01 1.00000E-02
 -1        82 7.50000E-01 1.00000E+00-1.25000E-02
 -1        84 7.50000E-01 1.00000E+00 1.25000E-02
 -3
    3C                             4                                     1
 -1         1    4    0    1
 -2        22        25        28        31        24        27        30        33        34        37
 -2        40        43        23        26        29        32        36        39        42        45
 -1         2    4    0    1
 -2        31        28        46        49        33        30        48        51        40        52
 -2        55        58        32        29        47        50        42        54        57        60
 -1         3    4    0    1
 -2        25        61        64        28        27        63        66        30        67        70
 -2        73        37        26        62        65        29        69        72        75        39
 -1         4    4    0    1
 -2        28        64        76        46        30        66        78        48        73        79
 -2        82        52        29        65        77        47        75        81        84        54
 -3
    1PSTEP                         1           1           1          
  100CL  101 1.000000000          51                     0    1           1
 -4  DISP        4    1
 -5  D1          1    2    1    0
 -5  D2          1    2    2    0
 -5  D3          1    2    3    0
 -5  ALL         1    2    0    0    1ALL
 -1        22 0.00000E+00 0.00000E+00-5.10979E-06
 -1        23 0.00000E+00 0.00000E+00 0.00000E+00
 -1        24 0.00000E+00 0.00000E+00 5.10979E-06
 -1        25-6.92280E-05-4.13769E-04-1.48366E-02
 -1        26 4.51362E-04-5.47115E-04-1.48374E-02
 -1        27 9.71569E-04-6.80638E-04-1.48360E-02
 -1        28 1.68364E-04 3.70028E-12-1.26937E-02
 -1        29 6.34226E-04 2.75790E-12-1.26768E-02
 -1        30 1.10148E-03 1.81711E-12-1.26578E-02
 -1        31 0.00000E+00 0.00000E+00-1.43846E-05
 -1        32 0.00000E+00 0.00000E+00 0.00000E+00
 -1        33 0.00000E+00 0.00000E+00 1.43846E-05
 -1        34-5.46758E-05-3.77937E-04-5.92995E-03
 -1        36 5.99799E-04-4.66091E-04-5.91196E-03
 -1        37 1.14579E-04-1.93504E-04-1.32169E-02
 -1        39 1.12631E-03-3.17815E-04-1.31976E-02
 -1        40 1.44747E-04 3.01492E-12-4.91640E-03
 -1        42 6.94476E-04 2.39844E-12-4.90726E-03
 -1        43 0.00000E+00 0.00000E+00-9.57533E-06
 -1        45 0.00000E+00 0.00000E+00 9.57533E-06
 -1        46-6.92280E-05 4.13769E-04-1.48366E-02
 -1        47 4.51362E-04 5.47115E-04-1.48374E-02
 -1        48 9.71569E-04 6.80638E-04-1.48360E-02
 -1        49 0.00000E+00 0.00000E+00-5.10979E-06
 -1        50 0.00000E+00 0.00000E+00 0.00000E+00
 -1        51 0.00000E+00 0.00000E+00 5.10979E-06
 -1        52 1.14579E-04 1.93504E-04-1.32169E-02
 -1        54 1.12631E-03 3.17815E-04-1.31976E-02
 -1        55-5.46758E-05 3.77937E-04-5.92995E-03
 -1        57 5.99799E-04 4.66091E-04-5.91196E-03
 -1        58 0.00000E+00 0.00000E+00-9.57533E-06
 -1        60 0.00000E+00 0.00000E+00 9.57533E-06
 -1        61 4.36099E-04-4.93987E-04-3.29931E-02
 -1        62 8.09435E-04-6.16507E-04-3.29946E-02
 -1        63 1.18512E-03-7.38867E-04-3.29934E-02
 -1        64 1.02597E-03 2.37725E-12-2.84388E-02
 -1        65 1.31723E-03 1.05615E-12-2.84273E-02
 -1        66 1.60401E-03-2.64647E-13-2.84151E-02
 -1        67 2.23574E-04-4.44737E-04-2.37914E-02
 -1        69 1.11111E-03-7.01135E-04-2.37721E-02
 -1        70 6.38313E-04-2.18181E-04-2.99690E-02
 -1        72 1.30478E-03-4.31306E-04-2.99587E-02
 -1        73 5.45001E-04 3.38368E-12-2.06983E-02
 -1        75 1.32748E-03 9.86376E-13-2.06913E-02
 -1        76 4.36099E-04 4.93987E-04-3.29931E-02
 -1        77 8.09435E-04 6.16507E-04-3.29946E-02
 -1        78 1.18512E-03 7.38867E-04-3.29934E-02
 -1        79 6.38313E-04 2.18181E-04-2.99690E-02
 -1        81 1.30478E-03 4.31306E-04-2.99587E-02
 -1        82 2.23574E-04 4.44737E-04-2.37914E-02
 -1        84 1.11111E-03 7.01135E-04-2.37721E-02
 -3
    1PSTEP                         2           1           1          
  100CL  101 1.000000000          51                     0    1           1
 -4  NDTEMP      1    1
 -5  T           1    1    0    0
 -1        22 3.68000E+02
 -1        23 3.73000E+02
 -1        24 3.78000E+02
 -1        25 3.58000E+02
 -1        26 3.73000E+02
 -1        27 3.88000E+02
 -1        28 3.58000E+02
 -1        29 3.73000E+02
 -1        30 3.88000E+02
 -1        31 3.68000E+02
 -1        32 3.73000E+02
 -1        33 3.78000E+02
 -1        34 3.63000E+02
 -1        36 3.83000E+02
 -1        37 3.58000E+02
 -1        39 3.88000E+02
 -1        40 3.63000E+02
 -1        42 3.83000E+02
 -1        43 3.68000E+02
 -1        45 3.78000E+02
 -1        46 3.58000E+02
 -1        47 3.73000E+02
 -1        48 3.88000E+02
 -1        49 3.68000E+02
 -1        50 3.73000E+02
 -1        51 3.78000E+02
 -1        52 3.58000E+02
 -1        54 3.88000E+02
 -1        55 3.63000E+02
 -1        57 3.83000E+02
 -1        58 3.68000E+02
 -1        60 3.78000E+02
 -1        61 3.63000E+02
 -1        62 3.73000E+02
 -1        63 3.83000E+02
 -1        64 3.63000E+02
 -1        65 3.73000E+02
 -1        66 3.83000E+02
 -1        67 3.60500E+02
 -1        69 3.85500E+02
 -1        70 3.63000E+02
 -1        72 3.83000E+02
 -1        73 3.60500E+02
 -1        75 3.85500E+02
 -1        76 3.63000E+02
 -1        77 3.73000E+02
 -1        78 3.83000E+02
 -1        79 3.63000E+02
 -1        81 3.83000E+02
 -1        82 3.60500E+02
 -1        84 3.85500E+02
 -3
    1PSTEP                         3           1           1          
  100CL  101 1.000000000          51                     0    1           1
 -4  STRESS      6    1
 -5  SXX         1    4    1    1
 -5  SYY         1    4    2    2
 -5  SZZ         1    4    3    3
 -5  SXY         1    4    1    2
 -5  SYZ         1    4    2    3
 -5  SZX         1    4    3    1
 -1        22-3.30177E+02-3.29157E+02-1.28266E+02-1.63414E+02 4.57088E+00-1.46692E+00
 -1        23-5.72200E+00-2.12265E+02-1.51005E-01-1.73182E+02 3.81354E+00-3.16876E+00
 -1        24 3.18733E+02-9.53727E+01 1.27964E+02-1.82951E+02 3.05619E+00-4.87060E+00
 -1        25 1.39741E+02 6.21944E+01 3.45653E+01 7.16577E+01-1.86114E+00-1.65269E+00
 -1        26 5.81501E+01 5.02477E+01 4.29532E-01 5.44648E+01-1.17128E+00-3.09704E+00
 -1        27-2.34407E+01 3.83009E+01-3.37063E+01 3.72720E+01-4.81421E-01-4.54139E+00
 -1        28 5.60848E+01-1.66293E+01 2.69171E+01-5.25606E-08 1.61232E-08-8.92346E+00
 -1        29 1.26109E+00-3.37910E+01-3.13874E-01-3.04124E-07 2.83706E-08-2.19458E-02
 -1        30-5.35626E+01-5.09528E+01-2.75448E+01-5.55687E-07 4.06181E-08 8.87957E+00
 -1        31-8.96252E+01-2.47671E+02-1.00177E+02 1.62648E-06-5.83492E-08 3.03740E+00
 -1        32 1.68727E+02-1.59237E+02-1.63653E-01 1.58411E-06-5.03714E-08-5.02459E+00
 -1        33 4.27080E+02-7.08029E+01 9.98498E+01 1.54175E-06-4.23935E-08-1.30866E+01
 -1        34-6.82948E+01-1.10295E+02-3.83834E+01-3.43333E+01 4.53005E-01 6.36238E-01
 -1        36 1.30371E+02-2.69616E+01 3.84381E+01-6.91256E+01 7.46476E-01-7.44084E+00
 -1        37 9.79128E+01 2.27826E+01 3.07412E+01 3.50264E+01-1.28237E+00-5.28808E+00
 -1        39-3.85016E+01-6.32595E+00-3.06255E+01-1.78446E+00-9.34149E-02 2.16909E+00
 -1        40-1.15579E+01-1.16068E+02-3.04330E+01 8.06800E-07-1.53259E-08-5.82409E+00
 -1        42 1.66764E+02-5.89600E+01 3.09138E+01 5.03848E-07 3.30064E-09 1.73377E+00
 -1        43-2.09901E+02-2.88414E+02-1.14222E+02-7.66557E+01 7.93616E-01 7.85239E-01
 -1        45 3.72906E+02-8.30878E+01 1.13907E+02-8.87322E+01-2.83673E-01-8.97859E+00
 -1        46 1.39741E+02 6.21944E+01 3.45653E+01-7.16577E+01 1.86114E+00-1.65269E+00
 -1        47 5.81501E+01 5.02477E+01 4.29532E-01-5.44648E+01 1.17128E+00-3.09704E+00
 -1        48-2.34407E+01 3.83009E+01-3.37063E+01-3.72720E+01 4.81421E-01-4.54139E+00
 -1        49-3.30177E+02-3.29157E+02-1.28266E+02 1.63414E+02-4.57088E+00-1.46692E+00
 -1        50-5.72200E+00-2.12265E+02-1.51005E-01 1.73182E+02-3.81354E+00-3.16876E+00
 -1        51 3.18733E+02-9.53727E+01 1.27964E+02 1.82951E+02-3.05619E+00-4.87060E+00
 -1        52 9.79128E+01 2.27826E+01 3.07412E+01-3.50264E+01 1.28237E+00-5.28808E+00
 -1        54-3.85016E+01-6.32595E+00-3.06255E+01 1.78445E+00 9.34149E-02 2.16909E+00
 -1        55-6.82948E+01-1.10295E+02-3.83834E+01 3.43333E+01-4.53005E-01 6.36239E-01
 -1        57 1.30371E+02-2.69616E+01 3.84381E+01 6.91256E+01-7.46476E-01-7.44084E+00
 -1        58-2.09901E+02-2.88414E+02-1.14222E+02 7.66557E+01-7.93616E-01 7.85238E-01
 -1        60 3.72906E+02-8.30878E+01 1.13907E+02 8.87322E+01 2.83673E-01-8.97859E+00
 -1        61-5.67644E+01 2.65766E+01-8.43414E+00-2.23092E+01-4.41991E-01-9.51126E+00
 -1        62-7.39550E+01-2.60360E+01-4.68638E-01-4.87082E+01 1.97848E-01 2.13331E+00
 -1        63-9.11457E+01-7.86485E+01 7.49686E+00-7.51072E+01 8.37687E-01 1.37779E+01
 -1        64 2.05272E+02-1.26924E+01-7.51670E+00 3.41317E-07-1.29812E-09 2.29786E+01
 -1        65 1.71157E+02 8.20344E+01 1.11364E+00 8.63546E-09 1.66839E-08-2.37915E+00
 -1        66 1.37041E+02 1.76761E+02 9.74397E+00-3.24046E-07 3.46659E-08-2.77369E+01
 -1        67 1.45651E+01 2.11989E+01 4.59847E+00 1.31296E+01-2.49696E-01-7.77802E+00
 -1        69-4.00180E+01-2.17481E+01-4.41370E+00-2.26316E+01 7.19042E-01 7.35309E+00
 -1        70 7.42541E+01 6.94212E+00-7.97542E+00 6.06531E+01 1.01110E+00 6.73368E+00
 -1        72 2.29475E+01 4.90563E+01 8.62042E+00 1.39207E+01 2.24480E+00-6.97951E+00
 -1        73 1.25466E+02-3.07427E+01 3.50322E+00 1.24537E-07 1.62538E-09 9.90863E+00
 -1        75 6.17339E+01 6.09863E+01-3.66170E+00-4.50682E-07 3.34536E-08-1.32659E+01
 -1        76-5.67644E+01 2.65766E+01-8.43414E+00 2.23092E+01 4.41991E-01-9.51126E+00
 -1        77-7.39550E+01-2.60360E+01-4.68638E-01 4.87082E+01-1.97848E-01 2.13331E+00
 -1        78-9.11457E+01-7.86485E+01 7.49686E+00 7.51072E+01-8.37687E-01 1.37779E+01
 -1        79 7.42541E+01 6.94212E+00-7.97542E+00-6.06531E+01-1.01110E+00 6.73368E+00
 -1        81 2.29475E+01 4.90563E+01 8.62042E+00-1.39207E+01-2.24480E+00-6.97951E+00
 -1        82 1.45651E+01 2.11989E+01 4.59847E+00-1.31296E+01 2.49696E-01-7.77802E+00
 -1        84-4.00180E+01-2.17481E+01-4.41370E+00 2.26316E+01-7.19042E-01 7.35309E+00
 -3
    1PSTEP                         4           1           1          
  100CL  101 1.000000000          51                     0    1           1
 -4  FORC        4    1
 -5  F1          1    2    1    0
 -5  F2          1    2    2    0
 -5  F3          1    2    3    0
 -5  ALL         1    2    0    0    1ALL
 -1        22 2.16963E-01 1.17067E-01 2.64708E+00
 -1        23-6.11355E-02 2.91081E-01-5.29258E+00
 -1        24 4.64535E-02 5.46902E-02 2.64708E+00
 -1        25 4.77926E-05-1.17755E-05 2.09042E-03
 -1        26-2.75359E-07-3.48420E-07-1.01593E-07
 -1        27 8.48166E-07-9.13842E-08-2.67181E-06
 -1        28 9.93152E-05-9.30316E-13 4.18162E-03
 -1        29-5.30384E-07 4.72905E-14-1.93712E-07
 -1        30 1.82282E-06 1.52409E-13-5.78295E-06
 -1        31 2.76756E-01 2.66378E-10 4.89429E+00
 -1        32-6.07346E-01-1.73525E-09-9.78300E+00
 -1        33 1.72680E-02-1.74845E-10 4.89429E+00
 -1        34 6.52285E-07-1.46215E-07-4.01092E-06
 -1        36-1.13162E-06-4.81075E-08 3.88619E-06
 -1        37-1.94092E-04 4.61809E-05-8.36328E-03
 -1        39-3.47966E-06 3.98288E-07 1.30532E-05
 -1        40 1.17782E-06 1.59264E-13-7.52422E-06
 -1        42-2.09544E-06-8.05924E-14 7.28852E-06
 -1        43 3.69108E-02 6.22744E-02 1.03435E-02
 -1        45-5.81940E-01 6.64807E-02 1.03485E-02
 -1        46 4.77926E-05 1.17755E-05 2.09042E-03
 -1        47-2.75360E-07 3.48420E-07-1.01602E-07
 -1        48 8.48166E-07 9.13843E-08-2.67181E-06
 -1        49 2.16963E-01-1.17067E-01 2.64708E+00
 -1        50-6.11355E-02-2.91081E-01-5.29258E+00
 -1        51 4.64535E-02-5.46902E-02 2.64708E+00
 -1        52-1.94092E-04-4.61809E-05-8.36328E-03
 -1        54-3.47966E-06-3.98288E-07 1.30532E-05
 -1        55 6.52285E-07 1.46215E-07-4.01092E-06
 -1        57-1.13162E-06 4.81074E-08 3.88619E-06
 -1        58 3.69109E-02-6.22744E-02 1.03435E-02
 -1        60-5.81940E-01-6.64807E-02 1.03485E-02
 -1        61 4.64323E-05-7.43217E-06 2.08957E-03
 -1        62 3.59322E-07-2.42620E-07 7.48123E-08
 -1        63 3.80980E-07-1.43307E-08-1.68699E-06
 -1        64-4.99898E-01-7.55420E-13 4.17894E-03
 -1        65 2.00000E+00-4.89621E-14 8.33490E-08
 -1        66-4.99999E-01-1.43287E-15-4.60161E-06
 -1        67-2.01315E-04 6.68572E-05-8.35904E-03
 -1        69-2.30173E-06 2.30351E-07 9.12040E-06
 -1        70-1.94231E-04 5.94396E-05-8.35959E-03
 -1        72-1.86229E-06 5.16191E-07 8.97879E-06
 -1        73-3.76638E-04 2.00534E-12-1.67174E-02
 -1        75-3.83491E-06-1.74671E-13 1.54946E-05
 -1        76 4.64323E-05 7.43216E-06 2.08957E-03
 -1        77 3.59322E-07 2.42620E-07 7.48100E-08
 -1        78 3.80981E-07 1.43309E-08-1.68699E-06
 -1        79-1.94231E-04-5.94396E-05-8.35959E-03
 -1        81-1.86229E-06-5.16192E-07 8.97880E-06
 -1        82-2.01315E-04-6.68572E-05-8.35904E-03
 -1        84-2.30173E-06-2.30350E-07 9.12041E-06
 -3
 9999
