    1C
    1UUSER                                                              
    1UDATE              19.october.2025                                 
    1UTIME              18:44:18                                        
    1UHOST                                                              
    1UPGM               CalculiX                                        
    1UVERSION           Version 2.23                             
    1UCOMPILETIME       Fri Oct 17 18:38:41 CEST 2025                    
    1UDIR                                                               
    1UDBN                                                               
    1UMAT    1ALUM                                                      
    2C                            16                                     1
 -1         4 8.83883E-02-1.25000E-01-8.83883E-02
 -1         5 8.83883E-02 1.25000E-01-8.83883E-02
 -1         6-8.83883E-02 1.25000E-01 8.83883E-02
 -1         7-8.83883E-02-1.25000E-01 8.83883E-02
 -1        13 5.08839E+00-1.25000E-01 4.91161E+00
 -1        14 5.08839E+00 1.25000E-01 4.91161E+00
 -1        15 4.91161E+00 1.25000E-01 5.08839E+00
 -1        16 4.91161E+00-1.25000E-01 5.08839E+00
 -1        22 5.08839E+00-1.25000E-01 5.08839E+00
 -1        23 5.08839E+00 1.25000E-01 5.08839E+00
 -1        24 4.91161E+00 1.25000E-01 4.91161E+00
 -1        25 4.91161E+00-1.25000E-01 4.91161E+00
 -1        31 8.83883E-02-1.25000E-01 1.00884E+01
 -1        32 8.83883E-02 1.25000E-01 1.00884E+01
 -1        33-8.83883E-02 1.25000E-01 9.91161E+00
 -1        34-8.83883E-02-1.25000E-01 9.91161E+00
 -3
    3C                             2                                     1
 -1         1    1    0    1
 -2         4        13        14         5         7        16        15         6
 -1         2    1    0    1
 -2        22        31        32        23        25        34        33        24
 -3
    1PSTEP                         1           1           1          
  100CL  101 1.000000000          16                     0    1           1
 -4  DISP        4    1
 -5  D1          1    2    1    0
 -5  D2          1    2    2    0
 -5  D3          1    2    3    0
 -5  ALL         1    2    0    0    1ALL
 -1         4-1.30000E-07 4.24264E-08-7.00000E-08
 -1         5-1.30000E-07-4.24264E-08-7.00000E-08
 -1         6 1.30000E-07-4.24264E-08 7.00000E-08
 -1         7 1.30000E-07 4.24264E-08 7.00000E-08
 -1        13 1.11837E-05 4.24264E-08-7.00000E-08
 -1        14 1.11837E-05-4.24264E-08-7.00000E-08
 -1        15 1.14437E-05-4.24264E-08 7.00000E-08
 -1        16 1.14437E-05 4.24264E-08 7.00000E-08
 -1        22 1.11837E-05 4.24264E-08 7.00000E-08
 -1        23 1.11837E-05-4.24264E-08 7.00000E-08
 -1        24 1.14437E-05-4.24264E-08-7.00000E-08
 -1        25 1.14437E-05 4.24264E-08-7.00000E-08
 -1        31-1.30000E-07 4.24264E-08 7.00000E-08
 -1        32-1.30000E-07-4.24264E-08 7.00000E-08
 -1        33 1.30000E-07-4.24264E-08-7.00000E-08
 -1        34 1.30000E-07 4.24264E-08-7.00000E-08
 -3
    1PSTEP                         2           1           1          
  100CL  101 1.000000000          16                     0    1           1
 -4  STRESS      6    1
 -5  SXX         1    4    1    1
 -5  SYY         1    4    2    2
 -5  SZZ         1    4    3    3
 -5  SXY         1    4    1    2
 -5  SYZ         1    4    2    3
 -5  SZX         1    4    3    1
 -1         4 5.65663E+00 2.57833E-13 5.65663E+00 5.85267E-14-1.77839E-13 5.65663E+00
 -1         5 5.65663E+00 2.29259E-13 5.65663E+00 7.89459E-14-1.73910E-13 5.65663E+00
 -1         6 5.65663E+00-2.49638E-14 5.65663E+00-1.08395E-13-1.35845E-13 5.65663E+00
 -1         7 5.65663E+00 1.12730E-14 5.65663E+00-1.04274E-13-1.41197E-13 5.65663E+00
 -1        13 5.65663E+00-4.34239E-14 5.65663E+00 1.90049E-13 1.04988E-13 5.65663E+00
 -1        14 5.65663E+00-1.70254E-13 5.65663E+00 1.29026E-13 1.38381E-13 5.65663E+00
 -1        15 5.65663E+00-3.12898E-13 5.65663E+00-3.78056E-13-3.65240E-13 5.65663E+00
 -1        16 5.65663E+00-1.13796E-13 5.65663E+00-3.59840E-13-4.00006E-13 5.65663E+00
 -1        22 5.65663E+00 2.39979E-15 5.65663E+00-1.58648E-13 1.29811E-13-5.65663E+00
 -1        23 5.65663E+00-8.53420E-14 5.65663E+00-1.39796E-13 1.59966E-13-5.65663E+00
 -1        24 5.65663E+00 9.92762E-14 5.65663E+00 1.65247E-13-8.34971E-14-5.65663E+00
 -1        25 5.65663E+00 1.20144E-13 5.65663E+00 1.45883E-13-1.14106E-13-5.65663E+00
 -1        31 5.65663E+00-7.84044E-14 5.65663E+00 6.01161E-14-4.58885E-14-5.65663E+00
 -1        32 5.65663E+00-2.29833E-13 5.65663E+00 5.41873E-14-4.75872E-14-5.65663E+00
 -1        33 5.65663E+00 4.77815E-14 5.65663E+00-9.69627E-14 1.49556E-13-5.65663E+00
 -1        34 5.65663E+00 1.46181E-13 5.65663E+00-8.29824E-14 1.49694E-13-5.65663E+00
 -3
 9999
