    1C
    1UUSER                                                              
    1UDATE              19.october.2025                                 
    1UTIME              18:44:19                                        
    1UHOST                                                              
    1UPGM               CalculiX                                        
    1UVERSION           Version 2.23                             
    1UCOMPILETIME       Fri Oct 17 18:38:41 CEST 2025                    
    1UDIR                                                               
    1UDBN                                                               
    1UMAT    1MATERIAL                                                  
    2C                             8                                     1
 -1         3 9.75484E-02 8.32934E-02 9.24473E-02
 -1         4-8.10570E-03-1.28015E-01-9.24473E-02
 -1         5-9.75484E-02-8.32934E-02-9.24473E-02
 -1         6 8.10570E-03 1.28015E-01 9.24473E-02
 -1        11 7.97548E-01 1.48329E+00-1.90755E+00
 -1        12 6.91894E-01 1.27199E+00-2.09245E+00
 -1        13 6.02452E-01 1.31671E+00-2.09245E+00
 -1        14 7.08106E-01 1.52801E+00-1.90755E+00
 -3
    3C                             1                                     1
 -1         1    1    0    1
 -2         3        11        12         4         6        14        13         5
 -3
    1PSTEP                         1           1           1          
  100CL  101 1.000000000           8                     0    1           1
 -4  DISP        4    1
 -5  D1          1    2    1    0
 -5  D2          1    2    2    0
 -5  D3          1    2    3    0
 -5  ALL         1    2    0    0    1ALL
 -1         3 4.60703E-12-2.67877E-11-4.50436E-11
 -1         4 2.61840E-11 3.80329E-11 1.36497E-11
 -1         5-7.33001E-12 2.22282E-11 3.86714E-11
 -1         6-2.34611E-11-3.34734E-11-7.27748E-12
 -1        11-3.04127E-07 2.13922E-07 3.42781E-08
 -1        12-2.99943E-07 2.22229E-07 2.23310E-08
 -1        13-3.07898E-07 2.06294E-07 4.50713E-08
 -1        14-3.12081E-07 1.97990E-07 5.70213E-08
 -3
 9999
